LAMMPS data file via write_data, version 31 Aug 2021, timestep = 15000

6936 atoms
32 atom types
7066 bonds
138 bond types
2555 angles
66 angle types
10 dihedrals
10 dihedral types
51 impropers
17 improper types

-43.992846555097444 15.643847512142703 xlo xhi
-28.51019693209194 43.94783257493722 ylo yhi
50.672679483647784 114.2244166309998 zlo zhi

Masses

1 72
2 72
3 72
4 72
5 72
6 72
7 72
8 72
9 72
10 72
11 45
12 45
13 45
14 45
15 24
16 24
17 24
18 72
19 72
20 72
21 45
22 45
23 45
24 45
25 45
26 45
27 45
28 45
29 45
30 45
31 45
32 45

Atoms # full

1766 15 16 0.46 -36.52720227809018 -26.524706849283888 53.2849853248706 0 1 0
3536 15 16 0.46 -36.6331042893788 -19.742668808476285 56.33747580341892 0 0 1
2131 15 15 0 -35.619782353953056 -24.431250576477506 112.68472491530763 1 0 0
874 15 15 0 -34.28086898009559 -24.73215775157733 56.56866229966992 0 1 0
875 15 16 0.46 -35.135693729531866 -23.6266889077578 56.483731250601735 0 1 0
876 15 17 -0.46 -34.63979755046824 -25.766962340281967 55.696681941767814 0 1 0
2133 15 17 -0.46 -36.48931344945467 -24.171862781466455 113.75085513519406 1 0 0
1767 15 17 -0.46 -37.49197123200042 -28.350690185893882 52.01727412831946 0 1 0
5808 15 17 -0.46 -39.81825555967747 40.77224977313888 55.339599041859174 0 0 1
4756 15 15 0 -40.78659733755388 -19.968282407759236 59.36074418198118 1 0 0
4758 15 17 -0.46 -40.7224821419883 -18.776924917332472 60.09324440157286 1 0 0
2132 15 16 0.46 -35.66300696793134 -23.51289416554802 111.62890621152789 1 0 0
6798 15 17 -0.46 -31.70221783975151 -25.405093550955744 54.0642321817486 1 0 1
2009 15 16 0.46 -31.445547010996155 40.00110389701603 55.11798067835931 1 -1 1
2008 15 15 0 -31.401619239012483 38.79834023628044 55.83312396984146 1 -1 1
6796 15 15 0 -31.25231941664865 -24.687768596725395 52.949316795305144 1 0 1
6797 15 16 0.46 -31.772009414748382 -23.56399260784913 52.295826295985194 1 0 1
3361 15 15 0 -29.17176232615193 42.88529601964618 51.55195986777483 1 0 1
3363 15 17 -0.46 -28.754832420961257 43.704190115592056 52.60817098009221 1 0 1
3362 15 16 0.46 -30.488764715688554 43.36015427134366 51.54817215743213 1 0 1
4402 15 15 0 -22.932628684554395 -21.0908279305816 52.297276647532506 1 0 1
4404 15 17 -0.46 -23.571949366761668 -22.26979852294351 51.89565816233981 1 0 1
4403 15 16 0.46 -24.29426914293547 -20.7765326480628 52.38185641749554 1 0 1
1024 15 15 0 -24.93687066411544 -21.78015222000747 56.86922409888385 0 0 1
907 15 15 0 -24.1471355689626 42.91879966939052 52.019596783735004 0 0 1
341 15 16 0.46 -27.491437162789904 -27.55021632169107 54.42094369312476 0 0 0
340 15 15 0 -27.665704594745648 -26.417307581279925 55.224777412285384 0 0 0
342 15 17 -0.46 -27.91169944354726 -26.435156973850983 56.60288043221819 0 0 0
908 15 16 0.46 -23.922831888724073 41.81098473802065 52.845692381632404 0 0 1
909 15 17 -0.46 -24.96625709272336 43.75492114660086 51.25152074279922 0 0 1
1025 15 16 0.46 -26.196403770391008 -21.287678252455898 56.507221688007746 0 0 1
1048 15 15 0 -28.446788758732378 -21.811849686507358 61.38252505997896 1 1 0
1049 15 16 0.46 -27.681147196066355 -21.164195534606687 60.40562327523069 1 1 0
5278 15 15 0 -27.9913768084802 -21.254617945441424 51.30133207895818 1 0 1
5280 15 17 -0.46 -28.527439271512257 -19.96159221396961 51.32819270962452 1 0 1
2251 15 15 0 -15.77287451313866 -22.204830959640336 55.83006721436818 0 1 1
2252 15 16 0.46 -16.178325452232396 -23.195580800291843 56.73230016058388 0 1 1
2253 15 17 -0.46 -14.64824171488193 -22.786743107651308 55.23292458393344 0 1 1
2427 15 17 -0.46 -14.289353175263145 -23.889807156317726 113.3682869419882 0 1 0
1610 15 16 0.46 -22.256367265183858 -25.852069913107076 56.26666280398208 0 0 0
1609 15 15 0 -20.99801693864759 -25.30046609364409 55.99779911721867 0 0 0
2425 15 15 0 -13.377956359884024 -24.509194298290232 50.68009794805896 0 1 1
1381 15 15 0 -17.520343311133857 -27.324892801314363 53.195197341771696 0 1 1
1383 15 17 -0.46 -16.70068122715135 -28.3199319328924 52.649256690500984 0 1 1
1382 15 16 0.46 -18.423991913088873 -26.793212842671885 52.2674389541714 0 1 1
2380 15 15 0 -16.7883682489472 -25.427502775238658 59.05490873885569 0 1 1
2381 15 16 0.46 -18.120462555841232 -25.095441973185885 59.329244994718806 0 1 1
445 15 15 0 -4.939922072438006 -28.002664214369936 55.23467957021987 0 1 1
447 15 17 -0.46 -6.128572605232252 -27.68486327439744 54.566763053399626 0 1 1
446 15 16 0.46 -4.858481828387867 43.736485346703255 54.0361057886146 0 0 1
2651 15 16 0.46 -12.614691484214575 -25.033090222389447 55.48320652280393 0 1 1
2650 15 15 0 -12.40448073250976 -26.020196001701507 56.4534815458345 0 1 1
2652 15 17 -0.46 -11.48564381991836 -26.811383965615548 55.753652756901836 0 1 1
3844 15 15 0 -12.053357556354394 -22.323419939917 60.03449286265765 0 0 0
3845 15 16 0.46 -13.22868412466701 -21.583351326005324 60.210293614992224 0 0 0
3846 15 17 -0.46 -12.740844382097777 -22.870969969013203 58.944744804588126 0 0 0
2382 15 17 -0.46 -16.617557411088804 -24.417849099602023 58.10022391497722 0 1 1
372 15 17 -0.46 0.8797695359861972 -26.618347559571735 55.613232621198115 0 1 0
370 15 15 0 -0.15503082299011123 -27.239513315949726 56.322698138447635 0 1 0
371 15 16 0.46 -1.0923549619928425 -26.68376215867107 57.20165439994611 0 1 0
6109 15 15 0 -2.2239745506271595 -22.563049664633677 55.558689277563786 0 1 1
6111 15 17 -0.46 -1.0814149224992893 -22.59410833058594 56.367140176160376 0 1 1
5377 15 15 0 -8.304190978036873 -25.440078539495804 53.10449344274192 0 0 1
2182 15 15 0 2.0907393556397817 43.88282501306739 60.827007311827614 -1 0 0
2184 15 17 -0.46 0.9324383978879918 -28.14735891913944 60.16724443368403 -1 1 0
1088 15 16 0.46 1.8391391426691746 -25.698941040520214 54.056364639390495 0 1 1
1089 15 17 -0.46 1.5318518371645318 -25.419303326183723 51.570208105753565 0 1 1
1087 15 15 0 1.8637541685935783 -24.97779181542935 52.856640547922 0 1 1
5299 15 15 0 5.007315016202372 -22.8274191892548 112.76544927897899 -1 1 -1
5300 15 16 0.46 4.742900389980981 -24.197803543035725 112.65530560756415 -1 1 -1
4372 15 15 0 7.067310031144576 -26.93797716221078 52.42210148017127 0 1 0
6854 15 16 0.46 6.161986737935806 -21.019695278664045 52.55962476917215 0 0 0
6853 15 15 0 6.446380176528441 -21.517883343745783 53.83670308466259 0 0 0
6855 15 17 -0.46 6.930597506185724 -20.920137250948354 55.00641808679196 0 0 0
941 15 16 0.46 14.61230074687022 -20.718331835524936 56.44813659220508 0 0 0
940 15 15 0 15.366713550227008 -20.928580156002894 55.287681092899916 0 0 0
942 15 17 -0.46 -43.48021146156922 -21.971668058748243 55.78591042384055 1 0 0
1765 15 15 0 -36.8153663434783 -27.888293706962713 53.152349157161225 0 1 0
417 15 17 -0.46 10.747964404783096 -21.53584740150397 52.52278962998478 0 0 1
415 15 15 0 10.91441027375701 -20.298524043476238 53.15629312672378 0 0 1
416 15 16 0.46 10.539238409822355 -19.554383967075925 54.2812382894792 0 0 1
4373 15 16 0.46 7.826791979061648 -27.222937758901473 51.28105606954032 0 1 0
2830 15 15 0 -40.59033573384994 -24.039573913359106 55.514264474101026 0 1 0
2832 15 17 -0.46 -41.376201167790406 -25.04140465064125 56.09628740627329 0 1 0
3535 15 15 0 -35.4508785356567 -20.334661084707168 56.797788101885075 0 0 1
3537 15 17 -0.46 -35.45793497008957 -21.720684300363633 56.99499320423899 0 0 1
3924 15 17 -0.46 -38.06804338640302 -19.135841825149768 55.17463139653428 1 0 0
3922 15 15 0 -38.9608105844406 -18.120225715771294 54.812015003525005 1 0 0
5481 15 17 -0.46 -33.86994363311992 -15.046459151255663 52.409565052977854 1 0 1
5480 15 16 0.46 -35.58181037226373 -16.588687436516732 51.69043675089596 1 0 1
5479 15 15 0 -35.044813325567766 -15.75779266587675 52.68101640542303 1 0 1
419 15 16 0.46 -37.65686568013154 -23.198317455847377 51.71181864924241 0 0 0
3923 15 16 0.46 -40.27550518160771 -18.508587775898587 54.527844233681776 1 0 0
3558 15 17 -0.46 -32.75212129054312 -21.472120476000455 52.88906630562145 1 0 1
3556 15 15 0 -32.913027095320075 -20.15061594329491 52.45578222787594 1 0 1
3557 15 16 0.46 -31.798490156342346 -19.315269774515972 52.59721839708497 1 0 1
2283 15 17 -0.46 -30.470123532702992 -13.005694716827495 53.72963001846984 0 0 0
2631 15 17 -0.46 -33.533088259362664 -7.404680113606526 113.41358518298392 0 0 0
3068 15 16 0.46 -26.009128304242324 -12.236666350403143 114.00377327812346 0 0 0
1050 15 17 -0.46 -27.10982128539369 -21.450372388560595 61.58710301163438 1 1 0
6020 15 16 0.46 -28.355188846375032 -11.65598285289696 58.240460718847295 0 1 0
1301 15 16 0.46 -26.059259745796375 -17.459031893748612 55.43494949131724 0 1 0
1300 15 15 0 -26.229707503410943 -17.288690715396314 54.05584418537366 0 1 0
1302 15 17 -0.46 -26.836960358023177 -18.543946961696005 53.93104143423808 0 1 0
3069 15 17 -0.46 -27.624648538458374 -12.831568195979218 52.10392770732256 0 0 1
3067 15 15 0 -26.423148611061393 -13.127835788396672 51.44923431484914 0 0 1
3281 15 16 0.46 -21.379181225570782 -15.130717715283806 57.438294479935976 0 0 0
6019 15 15 0 -27.981575339986833 -12.94525481734863 57.84272871168227 0 1 0
5252 15 16 0.46 -19.850251718241857 -16.632773539857805 54.807343993034905 0 0 1
2426 15 16 0.46 -12.441188148183889 -25.300739865121333 113.55661592123181 0 1 0
5251 15 15 0 -20.582759746322107 -16.94891437860253 53.65691496048279 0 0 1
5253 15 17 -0.46 -21.713398376040534 -17.239528230445405 54.42970204510701 0 0 1
6461 15 16 0.46 -19.773242636220868 -19.411107835651354 58.92131705557414 0 1 1
6462 15 17 -0.46 -20.95737959959579 -21.269733272562846 59.10551827499976 0 1 1
6460 15 15 0 -20.37707442317179 -20.417674546533267 58.15828977584418 0 1 1
2677 15 15 0 -17.60941348645371 -13.50822212630344 55.12502303411387 0 0 0
2679 15 17 -0.46 -18.423403370872403 -14.645519364167917 55.18807428953285 0 0 0
2678 15 16 0.46 -16.430610141653684 -13.86514432316256 55.79062743590036 0 0 0
2230 15 15 0 -15.475136638451843 -17.76829129565029 52.488067033811426 0 0 1
2232 15 17 -0.46 -16.022971345123292 -19.053419138320788 52.579300592107124 0 0 1
2201 15 16 0.46 -12.10744992164757 -17.224928414030256 56.72584441427159 0 1 0
2797 15 15 0 -11.598071752882634 -20.960142378480196 53.68925931563653 1 1 0
2798 15 16 0.46 -12.895634382863241 -20.787200343058757 53.192849934518264 1 1 0
2799 15 17 -0.46 -10.729747409925167 -19.863181251437947 53.637402578506055 1 1 0
3239 15 16 0.46 -9.542957837283126 -17.38368112191024 60.46048379578688 0 0 1
3238 15 15 0 -8.468734020940708 -17.686675919727236 59.61535815725816 0 0 1
3240 15 17 -0.46 -8.684430913158776 -18.71125951051124 58.686001758354216 0 0 1
2200 15 15 0 -12.93938281222996 -18.21834164860274 57.2559555450201 0 1 0
2202 15 17 -0.46 -14.321169598839314 -18.033279983845535 57.12782492186899 0 1 0
6546 15 17 -0.46 -7.666486100951389 -23.008406453006952 57.90166364890098 0 0 0
6110 15 16 0.46 -1.2713735740329608 -22.5165128888216 54.53380601207007 0 1 1
1812 15 17 -0.46 -5.962269034695237 -24.081030238666518 112.23074752630546 0 0 0
1732 15 15 0 -4.016250875727085 -17.7464062296629 56.33800268981901 0 0 1
1734 15 17 -0.46 -3.356108931661106 -16.515156099684834 56.247251760822174 0 0 1
6717 15 17 -0.46 -1.0092475588177283 -19.70686804248779 60.883711035985684 -1 0 1
6715 15 15 0 -1.5010532386094768 -20.733575878283638 60.06885019311737 -1 0 1
6716 15 16 0.46 -2.1778325407027705 -21.8096787484931 59.482358599839586 -1 0 1
4792 15 15 0 -1.3510753154635704 -19.04880120943827 51.90142691919492 0 1 0
1733 15 16 0.46 -5.034543395021184 -18.37076676193317 55.60776007883766 0 0 1
6545 15 16 0.46 -8.463433131578858 -21.270850544578536 58.12268527488482 0 0 0
6544 15 15 0 -7.3870591474374745 -21.74627083720172 57.36413758908313 0 0 0
4794 15 17 -0.46 -1.1403855828380334 -19.66833238683076 53.139082346527196 0 1 0
4593 15 17 -0.46 1.4997562415032826 -18.143573336909746 56.105448476751114 0 1 0
4592 15 16 0.46 3.1237676040732345 -18.735431416571576 54.74120402291068 0 1 0
4591 15 15 0 1.8517449148188403 -19.128154224556074 55.174478848063266 0 1 0
5301 15 17 -0.46 5.546656754909105 -21.689469460505766 113.37715255976893 -1 1 -1
1948 15 15 0 3.8311793245298484 -14.281040365509458 55.20049665765181 -1 1 1
6108 15 17 -0.46 9.060815903727276 -16.936690167454564 53.56381239334828 -1 0 0
645 15 17 -0.46 -1.3637253498766748 -23.576923573708303 112.2715201123629 0 0 0
644 15 16 0.46 0.08997289335528626 -23.383227338581808 112.68102442584369 0 0 0
643 15 15 0 -0.559158178313153 -22.551218153364136 111.76103009569307 0 0 0
6107 15 16 0.46 9.138881506309298 -15.591934236938418 53.79700049045594 -1 0 0
6106 15 15 0 7.930762244888799 -16.257994236203196 54.03535301837298 -1 0 0
1949 15 16 0.46 2.667429443211446 -14.061855403853198 54.4537408968335 -1 1 1
1950 15 17 -0.46 4.3279139222961955 -15.148297393379845 56.180863929132954 -1 1 1
5910 15 17 -0.46 1.1198181519253143 -14.044525686511141 52.580423624813605 0 0 0
3010 15 15 0 12.077045555304588 -18.476201431741046 58.377081021342086 0 1 1
3011 15 16 0.46 10.934197594850326 -18.011961281991166 59.039183447440756 0 1 1
4438 15 15 0 15.076411644759233 -14.969740248453414 60.39274754886829 0 1 1
4439 15 16 0.46 13.676694707904907 -14.955028284237155 60.36874640738606 0 1 1
3012 15 17 -0.46 13.101820708592433 -18.721499988553077 57.455308542240104 0 1 1
4440 15 17 -0.46 -43.917821587280486 -15.27215547972091 59.18618669125221 1 1 1
4611 15 17 -0.46 12.357016742995057 -14.439722341826387 54.75503820977585 0 0 1
5545 15 15 0 -43.850709924748976 -15.985180696684816 54.672768152715705 0 1 1
5546 15 16 0.46 15.05075077991208 -16.467984153452743 53.58357913115718 -1 1 1
5547 15 17 -0.46 -42.596617900786 -16.443525480813836 55.09368768694309 0 1 1
2249 15 16 0.46 8.949217778847103 -19.826005102620204 112.81174631869203 -1 0 -2
1293 15 17 -0.46 13.482252238024673 -16.704683168344904 113.26262245468965 0 0 -1
994 15 15 0 -34.7750942428193 -15.295314729623875 59.02114280065976 0 1 0
995 15 16 0.46 -35.28463296788358 -14.702970870915978 57.85946339535425 0 1 0
996 15 17 -0.46 -33.61223595250485 -15.973828434904384 58.6372420994446 0 1 0
4452 15 17 -0.46 -39.00494938456463 -11.278524753834326 53.455075325335635 1 0 1
1555 15 15 0 -39.364893147015096 -7.3430238884312375 54.51813908781552 0 0 0
1556 15 16 0.46 -40.00985158880013 -6.54549589019407 55.4710177266769 0 0 0
1557 15 17 -0.46 -38.44810030374993 -6.697402514948427 55.356389602065406 0 0 0
6046 15 15 0 -41.515007845755505 -15.922280537286497 113.64609878890269 0 0 -1
2282 15 16 0.46 -32.19862138965697 -13.894422635090285 52.432019243823405 0 0 0
393 15 17 -0.46 -31.858843976384147 -8.990768148522122 57.27144513219032 1 0 1
2203 15 15 0 -32.20866838450139 -2.648339893444812 50.85896025605331 0 0 1
2629 15 15 0 -32.565292370758385 -8.367924425757646 113.72266690872914 0 0 0
2630 15 16 0.46 -32.46836361411325 -9.729495124787618 113.41165236289913 0 0 0
6536 15 16 0.46 -36.04321579234257 -5.2958649505465 52.449276198491155 0 0 1
2204 15 16 0.46 -32.8779834251184 -3.5125448259425416 51.7336986232526 0 0 1
3282 15 17 -0.46 -20.202471874678192 -16.517322946958796 58.383786151996794 0 0 0
3280 15 15 0 -20.86949472777162 -15.334999137435979 58.726117749847226 0 0 0
1400 15 16 0.46 -26.944428363197208 -2.4785035972520144 54.135231888429466 1 0 1
1479 15 17 -0.46 -26.908585346100217 -8.895607884652314 53.48591750713855 0 0 1
1399 15 15 0 -26.08601905091091 -3.4005258257081317 53.52448770072525 1 0 1
1477 15 15 0 -28.2137605347265 -8.810195124086256 53.98513928884194 0 0 1
1478 15 16 0.46 -27.94729960269384 -10.052773878203313 53.39777516709335 0 0 1
4895 15 16 0.46 -23.405218532777795 -9.82056986558927 61.0694560507442 0 0 0
4894 15 15 0 -22.783110609688965 -10.639954795892317 60.11993508308608 0 0 0
4896 15 17 -0.46 -21.42140762413086 -10.902562585931797 60.311773889725316 0 0 0
2088 15 17 -0.46 -22.824230083271676 -13.176887208461293 56.62296737555094 0 0 0
2086 15 15 0 -23.7445004556185 -12.797206962328264 55.638617157141184 0 0 0
2991 15 17 -0.46 -21.736542593930203 -8.70482890472146 55.86260112747606 0 1 0
2989 15 15 0 -20.43643920989147 -8.19816376555836 55.976713473777906 0 1 0
2990 15 16 0.46 -21.2672656129923 -8.917662921878886 56.84392074541272 0 1 0
2087 15 16 0.46 -24.869519668730074 -12.508939511442529 56.42043148733332 0 0 0
6621 15 17 -0.46 -17.718320736572185 -8.730093723882455 50.77653704725268 0 0 0
6619 15 15 0 -18.35346671247738 -9.669714314791218 51.59733101313676 0 0 0
3089 15 16 0.46 -11.630773794109821 -11.881318351437775 54.306041439161724 0 0 1
3090 15 17 -0.46 -13.846705477323809 -13.433270523085385 54.93927106756551 0 0 1
3088 15 15 0 -12.649862757060387 -12.800550203049427 54.58257441834365 0 0 1
6785 15 16 0.46 -8.711876648052955 -8.203680613546663 53.70067274123918 0 0 0
6784 15 15 0 -9.857022644573233 -8.542463222634147 52.97001071921151 0 0 0
5854 15 15 0 -7.038308294712558 -12.69404572916454 55.15175992732046 0 0 0
5856 15 17 -0.46 -6.654837742284018 -12.755018039117694 53.806682712867975 0 0 0
1676 15 16 0.46 -15.497095232774228 -13.245960096267947 59.95176548979618 0 0 0
5855 15 16 0.46 -7.633780508570086 -12.196673482381298 56.31710695316874 0 0 0
3139 15 15 0 -11.627832494910196 -8.124002043525103 57.812403024936884 0 0 1
3141 15 17 -0.46 -11.805014774665326 -6.928672837170967 57.105441549198595 0 0 1
6786 15 17 -0.46 -8.995408360927671 -8.255376780489268 51.90455203819435 0 0 0
1105 15 15 0 -9.183835423895752 -17.154891290675664 54.54434720223142 0 0 1
1107 15 17 -0.46 -10.342919276373571 -16.477999936219657 54.94227020632702 0 0 1
1106 15 16 0.46 -9.885096405128403 -18.36659655273509 54.54250489412858 0 0 1
4793 15 16 0.46 -2.2762043260659164 -18.137701483018517 52.424909108251875 0 1 0
589 15 15 0 -3.412833474713087 -8.929722954711536 59.67726426090405 0 0 0
591 15 17 -0.46 -4.107586371041878 -8.027167131400955 58.86319338017498 0 0 0
4511 15 16 0.46 -7.046679848673291 -11.388071768657973 113.78485526295921 0 1 -1
6901 15 15 0 -2.7461516866773263 -10.360549738498666 54.38161865228154 -1 0 1
6903 15 17 -0.46 -2.0249532150779386 -11.384984244810832 53.7567933112144 -1 0 1
4510 15 15 0 -5.852503029271647 -10.993862548683467 50.84837482210538 0 1 0
4512 15 17 -0.46 -5.049125674001527 -10.040356693180259 51.485094076221124 0 1 0
731 15 16 0.46 0.7417936920315853 -17.13059056897308 57.58990985921986 0 0 0
802 15 15 0 2.1303610135526854 -9.651745434033064 54.74386704158717 0 0 1
803 15 16 0.46 2.8238839796379778 -10.041721358074051 53.59193619549411 0 0 1
6902 15 16 0.46 -3.9026392463215616 -10.65382177361264 53.64913791000346 -1 0 1
6216 15 17 -0.46 4.439074847582812 -7.000950131151467 52.659087534557464 -1 0 1
6214 15 15 0 5.783991961151156 -7.245192520364612 52.35652578393045 -1 0 1
6215 15 16 0.46 5.707643082898688 -6.805444295432905 53.68347429365455 -1 0 1
804 15 17 -0.46 1.9957888964883197 -8.94547302784952 55.94514537468593 0 0 1
6910 15 15 0 7.394003024406071 -10.912198765374885 55.75326736408998 0 1 1
5908 15 15 0 -0.2676518470398965 -13.919191995110888 52.4417929363945 0 0 0
4450 15 15 0 -39.83820000665845 -12.387208995113074 53.263992479636336 1 0 1
4451 15 16 0.46 -40.58808061206228 -12.463749410307678 54.44374696362064 1 0 1
4765 15 15 0 14.277979743237088 -2.2169304397898233 113.62072064596354 -1 0 0
4766 15 16 0.46 13.032040614009992 -1.6768971983292722 113.28013323518849 -1 0 0
1410 15 17 -0.46 11.455303128282742 -7.260910577327129 52.96701914595047 -1 1 1
1408 15 15 0 11.615102136021738 -8.583250341127782 53.39815929276736 -1 1 1
2826 15 17 -0.46 -43.450540283981006 -9.627984116191358 54.72370813415187 0 0 1
2824 15 15 0 -43.63661125752783 -10.651922742783372 55.6601520896433 0 0 1
1409 15 16 0.46 12.40165677643877 -9.004449421072621 52.31930659999966 -1 1 1
6911 15 16 0.46 7.775207057677186 -11.616558662513304 56.901553312937644 0 1 1
6912 15 17 -0.46 6.297332124330768 -10.768717720779685 56.61159488128251 0 1 1
4767 15 17 -0.46 15.17723457020117 -1.1448021187266684 113.66409828255324 -1 0 0
1593 15 17 -0.46 -40.088284304124876 -1.9731350299597714 52.89072262507047 0 0 0
1592 15 16 0.46 -40.96961307859561 -1.6098719684411675 51.3036412053077 0 0 0
1591 15 15 0 -39.76114717892194 -2.267882445411501 51.561773693621774 0 0 0
1278 15 17 -0.46 -37.038096648320064 2.849128993651624 112.4315342488652 0 0 0
1276 15 15 0 -36.25077943672214 1.9240656652500634 113.12751517300634 0 0 0
1277 15 16 0.46 -36.54510296654051 2.1532285267645306 50.92516975628624 0 0 1
4535 15 16 0.46 -37.082769178064495 -7.101398172658665 112.32589924002718 1 0 0
4791 15 17 -0.46 -29.736077357010636 -3.6657891557332656 55.41199306806468 0 0 0
4790 15 16 0.46 -30.89977586477564 -5.505997667455074 56.5756174163148 0 0 0
4789 15 15 0 -30.874188286784772 -4.229694074346763 56.0008179607899 0 0 0
6535 15 15 0 -35.102443374154625 -5.018825008302075 53.44837385516906 0 0 1
6537 15 17 -0.46 -34.112619706822656 -4.381181155055541 52.69097077621653 0 0 1
4030 15 15 0 -34.51246587519592 -0.35935916560698167 54.95831001988589 1 0 1
4031 15 16 0.46 -35.03611265141027 -1.5152675482087719 55.54963891719367 1 0 1
4032 15 17 -0.46 -33.80524726069832 -0.46582603820641255 56.16184923251961 1 0 1
1830 15 17 -0.46 -33.60469905521049 6.286563482705637 112.668456625868 1 -1 -1
1828 15 15 0 -33.67252898831173 6.446223190199551 114.05766786897628 1 -1 -1
1829 15 16 0.46 -34.267845086046876 7.695668961335895 50.71684304645834 1 -1 0
4183 15 15 0 -25.668795234978436 -2.31422017948912 59.87297135915281 0 0 1
4184 15 16 0.46 -24.494131527759215 -1.6459072928083225 59.507563285297564 0 0 1
4185 15 17 -0.46 -25.990307412964484 -3.0155034987755234 58.70471127445533 0 0 1
3811 15 15 0 -28.0105442117074 -5.5474010515379995 112.95172684197543 1 0 0
3812 15 16 0.46 -27.793306886830823 -5.160860913135011 50.72791840735012 1 0 1
4523 15 16 0.46 -30.486406560079182 1.2781295896474276 52.489670922754144 0 0 1
4524 15 17 -0.46 -31.675634114065293 3.267908725988921 53.507790608456716 0 0 1
4522 15 15 0 -31.068139165304835 2.5513891563505102 52.46973974575493 0 0 1
3651 15 17 -0.46 -23.549525622754683 2.6587355701023165 53.21976904776946 0 0 1
2352 15 17 -0.46 -30.382454696486352 5.257849754981333 60.14251675251297 1 0 0
2350 15 15 0 -29.225427286015258 6.046047792322441 60.13691092069348 1 0 0
6644 15 16 0.46 -21.947401915654467 -3.101895534614299 54.97360422451079 0 0 1
6643 15 15 0 -22.44999549844305 -2.857757818977061 56.257269471505964 0 0 1
6645 15 17 -0.46 -22.01769194421088 -1.9328230653933427 57.21518874712957 0 0 1
2619 15 17 -0.46 -16.68421244737358 0.014912906175019142 53.854365848447735 0 0 1
3706 15 15 0 -18.756400007128313 1.090190572515485 56.49924334780482 0 0 0
1153 15 15 0 -15.309411293736332 -7.074046194246901 53.975280209964225 0 0 1
1155 15 17 -0.46 -14.869589154512733 -5.751505086165524 54.1073464936392 0 0 1
1154 15 16 0.46 -16.414147957230707 -6.872771915828047 54.811369660428994 0 0 1
5690 15 16 0.46 -3.124681913224704 -6.074128186219972 52.14564149647466 0 0 0
744 15 17 -0.46 -8.332019181282138 -3.7427816463545933 52.379176297095874 0 0 1
5691 15 17 -0.46 -4.483791091866678 -6.809333064794019 50.94915595888741 0 0 0
5689 15 15 0 -4.516491538810704 -6.2092172683442906 52.21358931483066 0 0 0
726 15 17 -0.46 -13.811740441196127 1.3194290958974608 56.50300249839319 0 0 0
3140 15 16 0.46 -12.750736299221288 -8.805036456553744 58.297458871758394 0 0 1
2558 15 16 0.46 -13.230688803671217 -5.26417961758627 113.00504201599234 0 0 0
742 15 15 0 -8.165161265775623 -3.3173427941200346 53.70249040154814 0 0 1
743 15 16 0.46 -9.193093254796862 -2.703072523070511 54.427768182851366 0 0 1
2420 15 16 0.46 -9.202114944968429 -1.4611232269762469 58.34087831057729 0 0 1
1097 15 16 0.46 -9.660271603195303 -3.31583644385213 60.62448936147406 0 0 1
1096 15 15 0 -8.477046372620364 -3.875267326398017 60.127483183051595 0 0 1
1098 15 17 -0.46 -8.21516983788863 -2.922423934821125 59.13576237975708 0 0 1
2476 15 15 0 0.4176809572613973 -5.49833213485156 52.46992200298263 0 0 0
2477 15 16 0.46 0.8205915975120581 -6.7175026757856635 51.91199171334847 0 0 0
2419 15 15 0 -9.409870699341042 -0.22967389674273345 57.70813026151471 0 0 1
6415 15 15 0 -4.185388485014228 -3.853827383084109 56.885547841454404 0 0 1
6416 15 16 0.46 -3.804201255342899 -3.549976989259146 58.197939259480265 0 0 1
624 15 17 -0.46 0.34888293777187246 -5.187800815219144 58.60980964161877 0 0 1
1332 15 17 -0.46 0.04114755823230156 -4.4676935119108965 111.39964017591585 -1 1 0
1330 15 15 0 -1.3424763164790794 -4.6518697838876495 111.29163983253949 -1 1 0
4586 15 16 0.46 5.449078270105544 -4.124013007356357 50.76643360182864 0 0 1
2478 15 17 -0.46 -0.8592042012372125 -5.536076223183362 53.04275677479907 0 0 0
4585 15 15 0 5.3192067850987215 -2.8902271069890166 113.66939825482159 0 0 0
5941 15 15 0 2.47563414972016 -0.8804768503464805 54.01468328067153 0 0 0
4587 15 17 -0.46 5.380864093426772 -1.755584457418418 50.93545352251458 0 0 1
6176 15 16 0.46 10.070307674942958 -5.309315224597954 53.05207291559871 0 0 0
4089 15 17 -0.46 11.605870871950929 -1.05197421347609 112.49156546845948 0 0 -1
4087 15 15 0 10.292093947397484 -0.7689384028508292 112.0992888792847 0 0 -1
2681 15 16 0.46 11.364762118837676 0.8133359084458768 52.32623026270084 0 0 0
2680 15 15 0 11.396685898007197 0.29561338844615453 53.626593390680405 0 0 0
2682 15 17 -0.46 10.894071480685815 -0.11370953811813081 54.86749366438892 0 0 0
3925 15 15 0 9.710487702320734 -6.102910536822972 57.423779840886496 0 0 0
3927 15 17 -0.46 8.645175278504363 -5.281806936676718 57.03532351452615 0 0 0
6177 15 17 -0.46 8.391298446072824 -3.8672243192304627 52.54834942769737 0 0 0
6175 15 15 0 9.772942224618358 -4.075583942985291 52.460903808042296 0 0 0
2461 15 15 0 6.885900249490468 -0.027730824215852826 53.50107239358106 0 0 0
2463 15 17 -0.46 5.748433826419619 -0.612632776047993 54.0703349368152 0 0 0
2462 15 16 0.46 6.400363117914543 -1.0468002290410752 52.67297140818725 0 0 0
4537 15 15 0 -43.136325658830124 0.38537718800427156 53.479328565753896 1 0 0
4539 15 17 -0.46 -42.747080008365046 -0.906543021928242 53.85273182600023 1 0 0
4538 15 16 0.46 -42.52304090906678 0.6617859401983979 52.251533787535315 1 0 0
4235 15 16 0.46 -41.049647719766774 3.1666494586113223 58.358622151515824 1 0 0
4234 15 15 0 -42.08636028261993 2.265322634414159 58.6285054929897 1 0 0
5274 15 17 -0.46 -34.80251315029192 9.267745831390947 50.7111105187168 0 0 1
1779 15 17 -0.46 12.36595119934998 3.431666674293744 51.727910473782075 0 0 1
4389 15 17 -0.46 -37.03077067062069 9.330487930307108 55.481747196271186 1 0 0
5272 15 15 0 -35.23377758757041 10.549637761311754 113.90123452304123 0 0 0
373 15 15 0 -37.29704428509606 3.5713362400343143 54.05895110549036 0 1 1
375 15 17 -0.46 -37.22297335598468 2.5048259462555444 53.15503225364284 0 1 1
6750 15 17 -0.46 -31.62148847552895 11.722117813044983 112.80079432859516 0 0 0
6748 15 15 0 -30.650766343572776 11.85214285018575 111.800398390855 0 0 0
4042 15 15 0 -28.19940533019295 10.291500261831631 57.37769478889012 0 0 1
4043 15 16 0.46 -27.22738424409167 11.202668384160608 56.94763937266332 0 0 1
6121 15 15 0 -36.94246979805219 2.8708883058052224 59.109702965907736 0 0 1
6123 15 17 -0.46 -36.059877844642784 3.152830518322666 60.159245739013166 0 0 1
5971 15 15 0 -28.074630145867403 6.115436639475312 54.448402276764774 0 0 0
5973 15 17 -0.46 -26.910710062194994 6.738975243174273 53.98311779545037 0 0 0
5972 15 16 0.46 -28.832769473399292 7.246578960829273 54.12322262042015 0 0 0
374 15 16 0.46 -37.952527928932575 3.297200516862967 55.26526399937169 0 1 1
3649 15 15 0 -23.546422916273297 1.8270258013822667 54.345934769956095 0 0 1
3650 15 16 0.46 -24.72743397613659 1.5612604487657784 55.04919976540888 0 0 1
5302 15 15 0 -23.61856012476854 4.943231948642812 50.85446178729409 1 0 1
5304 15 17 -0.46 -22.343838935720093 4.538594675527097 113.99224897704656 1 0 0
5303 15 16 0.46 -23.6455541227673 4.498132650887993 52.18154804643875 1 0 1
5607 15 17 -0.46 -24.6766232247342 4.874811893092806 59.27258952361058 0 0 0
5605 15 15 0 -23.581941522785414 4.010145165422718 59.15416899549561 0 0 0
1804 15 15 0 -20.343580214126156 5.946536795853703 54.47186603862926 0 0 0
1805 15 16 0.46 -20.781080202423826 6.861694577328165 55.43679090370752 0 0 0
3971 15 16 0.46 -24.899038865408816 8.897474964811598 53.19008644394761 0 0 1
1806 15 17 -0.46 -21.648506320259717 6.257907018573397 54.872136499611116 0 0 0
3707 15 16 0.46 -18.15982906401435 1.2030695253743153 55.23775159125708 0 0 0
2618 15 16 0.46 -14.529073972411435 -0.8689598386332168 52.69584488227553 0 0 1
3697 15 15 0 -15.004936048028034 4.164163339760115 52.34940716343695 0 0 1
3699 15 17 -0.46 -14.52602576557449 3.446337955064108 51.24696820438012 0 0 1
3698 15 16 0.46 -14.44507867619801 5.343991258869236 51.84486201729218 0 0 1
3708 15 17 -0.46 -19.03102573398098 -0.12130266940928647 57.14489405439786 0 0 0
2617 15 15 0 -15.893028024325867 -0.6194452510058842 52.88916279357029 0 0 1
725 15 16 0.46 -15.51235548140049 1.3335113066389537 57.461674025925305 0 0 0
724 15 15 0 -14.269292145097959 0.7304737417212757 57.68781388804293 0 0 0
2603 15 16 0.46 -11.12167116921055 1.0252527607698965 53.598569404743635 0 0 0
2602 15 15 0 -11.19042952089542 0.32350465427125863 52.389097667124595 0 0 0
2604 15 17 -0.46 -12.465625696050084 -0.22762791090849013 52.56267073666461 0 0 0
5140 15 15 0 -8.610104912534135 5.987236284851833 60.432482363145205 0 0 0
4049 15 16 0.46 -7.923456758214191 4.614534637131124 51.05558506379443 0 0 1
2421 15 17 -0.46 -10.064593430957366 0.6553818323628983 56.84325194574875 0 0 1
6417 15 17 -0.46 -3.0194717756055103 -3.1607167832755723 56.5387973214049 0 0 1
3856 15 15 0 3.8723415880426804 2.588665956580055 56.96546298859796 0 0 0
5515 15 15 0 -4.810813669194049 6.128774815389849 55.70308937622497 0 0 1
5516 15 16 0.46 -5.624829188223191 6.161455634297884 54.56453296617967 0 0 1
5517 15 17 -0.46 -3.5832896308527586 6.668613447627037 56.10528209923047 0 0 1
3913 15 15 0 0.021743157466406135 3.6876133731251075 53.13342101084541 -1 0 1
3858 15 17 -0.46 3.0514845672463804 3.2799728291498353 57.86451168547025 0 0 0