LAMMPS data file via write_data, version 31 Aug 2021, timestep = 15000

6936 atoms
32 atom types
7066 bonds
138 bond types
2555 angles
66 angle types
10 dihedrals
10 dihedral types
51 impropers
17 improper types

-47.66472921444267 14.770615399682718 xlo xhi
-28.304232211166774 42.62598148496805 ylo yhi
61.3051055925189 123.55673403502999 zlo zhi

Masses

1 72
2 72
3 72
4 72
5 72
6 72
7 72
8 72
9 72
10 72
11 45
12 45
13 45
14 45
15 24
16 24
17 24
18 72
19 72
20 72
21 45
22 45
23 45
24 45
25 45
26 45
27 45
28 45
29 45
30 45
31 45
32 45

Atoms # full

4851 15 17 -0.46 -41.80258271684183 -20.456242136872433 65.09149610838743 0 0 1
2583 15 17 -0.46 -40.69120901221576 -26.934032046341684 64.53200643784989 0 0 0
4985 15 16 0.46 14.602775731644027 -20.15603240771545 68.42347543591883 0 0 0
4984 15 15 0 -46.538025636187484 -19.757808543809343 68.77784182497203 1 0 0
5102 15 16 0.46 -43.63259399409246 -24.404235782785502 68.63867784357822 0 0 0
5101 15 15 0 -44.71059931891613 -24.299671671304264 67.75156405930815 0 0 0
5103 15 17 -0.46 -44.063513273859115 -23.233109990394304 67.11616982648334 0 0 0
4986 15 17 -0.46 -46.43279919936542 -18.36720198331957 68.90088974619214 1 0 0
2455 15 15 0 -47.032684196289935 41.311461252607955 66.02633534306848 1 0 0
4274 15 16 0.46 14.202092929076247 -21.84401778373835 62.727797848835586 0 0 1
4273 15 15 0 14.700646555646989 -20.539491857964734 62.629530914327326 0 0 1
3671 15 16 0.46 -39.80284342450521 -21.187123886359323 64.80520227319013 1 1 1
1982 15 16 0.46 -43.55224200656311 -25.262721070031827 63.66538198935251 1 1 0
1981 15 15 0 -43.931132437342434 -24.256610159329863 62.76861954765999 1 1 0
1983 15 17 -0.46 -44.66935463135039 -24.520834454782545 61.608786148431186 1 1 0
6531 15 17 -0.46 -34.22696894155373 -26.507377598149 67.60715815972152 1 0 0
6530 15 16 0.46 -34.08574866734278 -25.44407449663153 69.47806745870749 1 0 0
2606 15 16 0.46 -35.66954427237312 41.013279171007966 65.548075412454 1 0 0
2638 15 15 0 -33.96963568527252 -25.011016270073334 63.18735731900879 0 1 0
6529 15 15 0 -34.84338894192822 -25.45915690473613 68.30088704123027 1 0 0
2640 15 17 -0.46 -33.729623216365034 -26.390282261004664 63.182959475314014 0 1 0
2639 15 16 0.46 -34.51975974191957 -25.656230495444273 64.30138699800176 0 1 0
4507 15 15 0 -38.99535256052908 -18.267918033332524 69.50007813778844 1 1 1
4509 15 17 -0.46 -38.11967778455629 -17.391620936203005 70.15222619175115 1 1 1
4508 15 16 0.46 -37.62626373105664 -18.53280060733399 69.62430775987643 1 1 1
3670 15 15 0 -38.6269673949425 -21.834230234361286 64.40699511921697 1 1 1
3672 15 17 -0.46 -37.42567069544042 -21.32534329773709 64.91485368761829 1 1 1
1341 15 17 -0.46 -34.74501944772167 -27.45460450868863 119.0957501724665 0 0 -1
5011 15 15 0 -29.647820096346013 -23.16917053638726 65.47129188355079 0 0 0
1737 15 17 -0.46 -28.511384833979942 -21.613364564636303 68.23027348136712 0 0 0
4302 15 17 -0.46 -25.994314541351187 -26.550275230336705 68.35833114589333 0 0 0
4300 15 15 0 -27.08473756281073 -26.62018035385209 67.4830649532531 0 0 0
4301 15 16 0.46 -28.114449470725113 -27.56262800530615 67.37589307741912 0 0 0
5951 15 16 0.46 -25.41208762740676 -21.604179456591126 123.21115722299727 0 1 -1
5950 15 15 0 -26.504366464057306 -22.37863402772312 122.80232099630241 0 1 -1
4583 15 16 0.46 -36.036231222942305 -20.901420171330845 66.17411061501674 0 0 0
5013 15 17 -0.46 -30.113142310476725 -22.068713418579456 64.7415868959684 0 0 0
5012 15 16 0.46 -29.08511907251775 -22.103118444323126 66.1832613314826 0 0 0
1339 15 15 0 -34.898097327627895 -27.740151961902598 120.45774496491119 0 0 -1
936 15 17 -0.46 -29.55222449367918 -27.45538353149089 122.60340517267066 0 0 -1
935 15 16 0.46 -30.194330501317477 -25.290174620578842 122.81273666191551 0 0 -1
934 15 15 0 -29.832084650156897 -26.43956752285215 123.5252490474505 0 0 -1
5952 15 17 -0.46 -27.242806612822083 -22.86276221653182 121.71589288386558 0 1 -1
791 15 16 0.46 -21.617237370051555 -21.562692631975107 123.33808085757525 0 0 -1
5580 15 17 -0.46 -21.64059424821032 40.69477528934763 66.1993588711564 0 -1 0
1689 15 17 -0.46 -19.593195555822284 -24.865326196467716 62.260012251868396 0 0 0
792 15 17 -0.46 -23.72235116787248 -21.105866518475494 61.928906369858694 0 0 0
790 15 15 0 -22.346813486466615 -20.888927656139433 62.07324491994781 0 0 0
4168 15 15 0 -23.143794372006965 -23.84315214449592 67.62339072082749 0 0 0
4169 15 16 0.46 -23.947612153928095 -24.79799998287595 68.25753784811536 0 0 0
699 15 17 -0.46 -18.061741021974402 -25.786206528609707 65.75074273474351 0 1 1
6421 15 15 0 -14.64262561704782 -22.45508405413827 66.35989161856168 0 1 0
6422 15 16 0.46 -15.550894400846849 -21.440487437628406 66.68491703625375 0 1 0
697 15 15 0 -19.2189882331018 -25.037336390712174 65.50585008703193 0 1 1
698 15 16 0.46 -19.55135823575626 -25.189047670796906 64.15436428657728 0 1 1
5742 15 17 -0.46 -14.797864473365719 -28.233187481231163 66.46658889269794 0 0 0
4854 15 17 -0.46 -11.046770124105105 -21.37038843941449 122.18323767869374 0 0 -1
4852 15 15 0 -11.141614107648767 -21.50596095040095 61.32179796907125 0 0 0
4853 15 16 0.46 -11.875944963161066 -20.372569277424763 61.69082575971973 0 0 0
5957 15 16 0.46 -11.543107211438898 -25.43557630062826 66.12901852755583 0 1 0
5956 15 15 0 -10.77095803175751 -25.699584018425554 64.99143970863345 0 1 0
5958 15 17 -0.46 -11.161061776071856 -27.030361309936545 64.79947390680772 0 1 0
2560 15 15 0 -6.3455649203227775 -24.136725737178494 70.93947873306797 0 0 0
2562 15 17 -0.46 -7.5997363447857 -24.431055562463573 71.48758820389327 0 0 0
3473 15 16 0.46 -5.394005289334262 -21.71714130114429 63.70829371332131 0 1 0
3474 15 17 -0.46 -5.2194992909109 -22.45922388985231 61.35982018479963 0 1 0
3472 15 15 0 -5.961642900448534 -22.03576772049195 62.468832238590366 0 1 0
3720 15 17 -0.46 -3.946787699501123 -22.12902950562874 65.2990681007205 0 1 1
3718 15 15 0 -3.1873652246991226 -22.210758940844304 66.47235314885883 0 1 1
2561 15 16 0.46 -6.2007899798671176 -24.200147246867427 69.54842951441145 0 0 0
2739 15 17 -0.46 0.4123804155054275 -27.472398721218553 65.74169234896426 0 1 1
5346 15 17 -0.46 -6.12253856082207 -25.459288058609438 67.17844475529071 0 1 0
2738 15 16 0.46 -1.2057129159262798 -27.673290114724864 66.86701122106633 0 1 1
2737 15 15 0 -0.6117045046444598 -26.617167586324545 66.16575576666206 0 1 1
3911 15 16 0.46 -2.924672152813545 -28.109513415825223 70.67510105321382 0 0 0
2267 15 16 0.46 1.3313327188511892 -19.499920027119654 62.83368318994027 -1 1 1
2268 15 17 -0.46 1.5472491085368107 -20.2389763260188 64.13521865295506 -1 1 1
2266 15 15 0 0.2863652447521883 -19.797493591775517 63.71657217033056 -1 1 1
1595 15 16 0.46 2.903902821185094 -22.385654255188705 67.3406231492106 0 1 0
1594 15 15 0 3.554781490377086 -23.37016237456248 66.58756224803597 0 1 0
3999 15 17 -0.46 10.195323484151745 -24.328411462561654 64.41078358376696 -1 1 1
3997 15 15 0 8.845505672213827 -24.38544945334655 64.04371609381087 -1 1 1
1596 15 17 -0.46 4.461956320135187 -24.287540836408137 66.04400858371655 0 1 0
3286 15 15 0 6.0594817193330295 -27.97852631135436 66.1780798953387 -1 1 1
3288 15 17 -0.46 7.329210853968275 -27.409097206361736 66.02465754023272 -1 1 1
3287 15 16 0.46 4.931454594890455 42.451201091303005 65.51696850036556 -1 0 1
3687 15 17 -0.46 7.794284344957733 -23.863648268232303 69.99266583308233 -1 0 0
6180 15 17 -0.46 3.6438965752359707 41.650828702428726 64.48559212134978 0 -1 1
2456 15 16 0.46 14.440956308123308 40.32046676844518 66.25667235208294 0 0 0
2457 15 17 -0.46 -46.02662523914991 41.53079917294485 66.97487962324766 1 0 0
3998 15 16 0.46 7.710839382936559 -24.215043569035533 64.84589702512967 -1 1 1
6936 15 17 -0.46 14.090644148447034 -24.117334236344295 63.48974356552526 1 0 0
6934 15 15 0 13.714894438926885 -25.226272939681422 64.25725063913208 1 0 0
6935 15 16 0.46 12.398474225771375 -25.144768751637088 64.72671298024885 1 0 0
3685 15 15 0 7.212065291877856 -25.058516240442504 69.55299379256 -1 0 0
3686 15 16 0.46 6.360385893043905 -26.140007186577325 69.29800450841161 -1 0 0
2217 15 17 -0.46 11.782397557169261 -26.769952086985626 67.6071358893305 0 1 1
4849 15 15 0 -42.75460501580563 -20.0684078273802 66.04188449776139 0 0 1
4850 15 16 0.46 -43.026108402486955 -21.2471484446342 66.74676496156808 0 0 1
1573 15 15 0 -42.84132142644959 -21.26681777242808 71.28509623743611 0 1 1
4344 15 17 -0.46 -46.45299210628348 -15.591321896740906 62.373164285094504 0 0 1
4969 15 15 0 -44.87737484082535 -17.528179839904585 120.92588010532995 1 0 -1
4971 15 17 -0.46 -44.266730110133174 -16.391631112179954 120.38240057270207 1 0 -1
4342 15 15 0 -45.97025271260745 -16.204474430817818 63.5354924004511 0 0 1
1574 15 16 0.46 -43.49400152039439 -20.22279003747715 71.95144058056619 0 1 1
1575 15 17 -0.46 -41.73960390903443 -22.00932360950462 70.84361736622273 0 1 1
1292 15 16 0.46 -44.24836217319779 -14.529759751270102 67.11309395828526 0 0 0
1291 15 15 0 -42.87290915588707 -14.270890527526076 67.07969153068474 0 0 0
1293 15 17 -0.46 -43.15239636252605 -12.934040769945417 67.38745706966182 0 0 0
2347 15 15 0 -35.99672278825255 -22.229593252994494 119.83026439729356 0 0 -1
2349 15 17 -0.46 -36.426407401033714 -23.35387680047208 120.54535714541196 0 0 -1
4036 15 15 0 -35.554521220825876 -12.984897729863894 122.63391934435417 0 0 0
5457 15 17 -0.46 -32.62081150398421 -16.085162815622905 64.97043401153488 0 1 0
4037 15 16 0.46 -35.951989727803074 -14.092026212163782 123.39305392375475 0 0 0
782 15 16 0.46 -38.48041875099882 -16.938745335974502 64.3705324523656 0 0 0
781 15 15 0 -37.273899601408814 -16.37923549185811 64.80786559312843 0 0 0
783 15 17 -0.46 -36.31272659278033 -15.999219351077457 63.863548813530464 0 0 0
5694 15 17 -0.46 -29.620094691769058 -12.402815803666373 122.92677410442684 0 0 -1
5455 15 15 0 -32.143446729011885 -17.334828088822004 64.55756650666613 0 1 0
5456 15 16 0.46 -32.749570321647155 -18.288328113085264 65.38427800058774 0 1 0
5949 15 17 -0.46 -25.708884856359152 -12.405907758810804 122.71122037387329 0 1 0
4410 15 17 -0.46 -25.25420741899381 -14.6833554766441 65.12343369913916 0 0 0
3240 15 17 -0.46 -30.98006332117856 -9.801561269475117 119.05058837440322 1 0 -1
4919 15 16 0.46 -26.404633366187657 -13.312401384485987 73.22643711312698 0 0 1
4918 15 15 0 -26.371971443063867 -14.446124905219847 72.40570318710617 0 0 1
4408 15 15 0 -26.26253359193609 -13.912230281113706 65.71389475778552 0 0 0
5692 15 15 0 -30.30661211499024 -13.390922519362544 61.39092422125515 0 0 0
4409 15 16 0.46 -25.961696036506936 -13.046150264428514 66.7719127963567 0 0 0
3633 15 17 -0.46 -27.767300407737498 -18.905638560748795 61.413842283896166 1 0 0
6523 15 15 0 -24.907431977116378 -19.51275603714414 66.06354574922456 0 0 0
6525 15 17 -0.46 -24.440707555746997 -19.551560002114375 67.38288746644575 0 0 0
4762 15 15 0 -22.44339531854649 -15.671495417331453 63.99465529333084 0 0 0
4764 15 17 -0.46 -22.39260576397113 -15.300511765458754 65.34365179117336 0 0 0
6524 15 16 0.46 -25.10933728027982 -20.897972094939153 66.08381202123978 0 0 0
1065 15 17 -0.46 -20.955127137651523 -15.517001986859915 69.60948767849831 1 0 0
1064 15 16 0.46 -21.600443869813045 -16.70736338146702 68.67259300631248 1 0 0
1063 15 15 0 -21.863896596145374 -15.337005150770615 68.55985002182489 1 0 0
5443 15 15 0 -18.70140457415017 -19.44567564665379 66.52185572473493 0 0 0
5444 15 16 0.46 -18.632040065711163 -19.375848063674116 67.91839167974086 0 0 0
5445 15 17 -0.46 -17.414962621675464 -19.958629879266358 66.72666065181976 0 0 0
4920 15 17 -0.46 -25.981776706286073 -15.585129711051229 73.12013731261287 0 0 1
6423 15 17 -0.46 -13.507536168084195 -22.22925886855655 67.14765740127208 0 1 0
1236 15 17 -0.46 -17.315057398358302 -14.221023913010434 71.61863824891505 0 1 0
1234 15 15 0 -16.64247787131666 -14.813964725020538 70.543436884864 0 1 0
1235 15 16 0.46 -17.16312160434096 -15.830963721209494 71.35253709189226 0 1 0
1516 15 15 0 -9.591575979756001 -14.952294456808772 67.42339829984022 0 1 0
5764 15 15 0 -7.811355092716278 -17.073230069888233 63.121469667432834 0 1 0
1517 15 16 0.46 -10.415519561478428 -15.781014954743268 66.65246424919668 0 1 0
4058 15 16 0.46 -14.43367942936081 -12.494327253436888 73.54229827368874 0 1 0
3561 15 17 -0.46 -11.999755762620712 -17.037767966583587 65.61671526625386 0 1 0
3559 15 15 0 -13.341326317006311 -17.419997615195964 65.49801841150384 0 1 0
5765 15 16 0.46 -8.645092654589957 -15.978979288259868 63.381271331836025 0 1 0
3719 15 16 0.46 -1.9706041433564503 -21.54132327852082 66.29529845409093 0 1 1
2926 15 15 0 -10.409673356841155 -22.223549194559137 68.5182447179989 0 0 0
2927 15 16 0.46 -11.660894423647914 -22.32350700664565 67.89820094713637 0 0 0
2928 15 17 -0.46 -9.351366336959886 -21.324084447947914 68.69416919406268 0 0 0
5766 15 17 -0.46 -7.70107926177556 -18.09679451098663 64.07023469420673 0 1 0
2734 15 15 0 -7.234951733767723 -19.03100819528471 67.94424702875048 0 0 1
2735 15 16 0.46 -8.038986226927582 -20.174670301983696 67.8696446192041 0 0 1
4711 15 15 0 -5.567776533836338 -12.511324839908179 65.25237846914398 1 0 0
5684 15 16 0.46 -4.605706143428906 -17.652726518390004 67.6414330332249 0 0 1
1197 15 17 -0.46 -0.44871404895806993 -9.906698162978294 64.70573831248038 0 1 1
4712 15 16 0.46 -6.603174564280728 -12.059236330873564 66.07915951546202 1 0 0
4713 15 17 -0.46 -4.785683016236687 -13.664109138986051 65.11302966388065 1 0 0
3880 15 15 0 1.4633228453930751 -20.092884189464932 70.0478260604397 0 0 0
5683 15 15 0 -3.3415741228006106 -17.126121046686933 67.35047442518136 0 0 1
6252 15 17 -0.46 3.9571659776312114 -15.026856938792577 69.06418718315207 0 1 0
6251 15 16 0.46 3.97914096288785 -15.743608677080921 71.12626702936103 0 1 0
6250 15 15 0 4.751726777287301 -15.753743044498634 69.9587874989255 0 1 0
6596 15 16 0.46 2.5355948856418937 -15.246325935061808 67.6288722823729 0 0 1
6595 15 15 0 1.858135266209599 -15.102245531084606 66.41220088005079 0 0 1
5685 15 17 -0.46 -2.8994592177135448 -15.937811214536517 67.94415291857199 0 0 1
2649 15 17 -0.46 2.3950799273987475 -17.755663557262206 61.90554271587095 -1 0 1
2648 15 16 0.46 2.7072824667231714 -16.08495810628462 63.1243002654278 -1 0 1
717 15 17 -0.46 7.118871578872341 -16.71850508870692 66.25025822642657 0 0 1
5632 15 15 0 12.8592034408798 -15.841906410416133 122.77000191795395 -1 0 -1
4343 15 16 0.46 -46.73401339779289 -17.373609766660753 63.43653694457071 0 0 1
737 15 16 0.46 8.175168212834599 -18.536410301163112 67.13060233987873 -1 0 0
736 15 15 0 7.727177558917337 -19.717098875678943 67.73498538399119 -1 0 0
738 15 17 -0.46 8.411879823728578 -20.108221277630193 68.8917939572886 -1 0 0
2237 15 16 0.46 8.076589496803397 -12.314104016646581 70.29357658329123 0 0 1
2236 15 15 0 8.66484445599116 -12.098937066042732 69.04151456950765 0 0 1
2238 15 17 -0.46 7.322982741262989 -12.197720531654339 68.65466968396716 0 0 1
5634 15 17 -0.46 11.924457222347742 -15.476727497254343 121.79383908915837 -1 0 -1
716 15 16 0.46 6.087923869348027 -15.372508902210853 64.52451229305696 0 0 1
715 15 15 0 6.92668055803048 -15.472790505973268 65.64094895366091 0 0 1
445 15 15 0 14.64264290427513 -14.788974426892201 68.20275654638004 0 1 1
446 15 16 0.46 14.721538349405193 -15.91009554625838 67.36797337426344 0 1 1
447 15 17 -0.46 -46.78914987684829 -15.69684794342659 67.8440792590396 1 1 1
2885 15 16 0.46 13.839986660778155 -5.702943629388181 63.539066842581676 -1 0 1
2884 15 15 0 14.607778902239158 -4.545595048222793 63.36288700370247 -1 0 1
2886 15 17 -0.46 13.733534076889361 -3.750567942677779 64.11363855168553 -1 0 1
2352 15 17 -0.46 -47.01124560517834 -11.15647626288395 73.9798787689828 1 0 0
354 15 17 -0.46 12.384617787640114 -16.905489789020034 63.629382173897014 0 0 1
2350 15 15 0 -46.37113517653211 -11.301553485744442 72.7432659603214 1 0 0
3779 15 16 0.46 -44.957905886920976 -1.4470594471504648 64.50854357212525 0 0 1
4038 15 17 -0.46 -35.82182065328667 -12.17054264207028 121.52695195351069 0 0 0
723 15 17 -0.46 -44.02287882083786 -8.761536205172717 64.45699720309122 0 0 0
722 15 16 0.46 -43.89501352814902 -10.394622775639872 65.26027542697462 0 0 0
721 15 15 0 -43.315852516955864 -9.16504139270014 65.59598682958368 0 0 0
3246 15 17 -0.46 -43.78956713823129 -4.867937773992175 121.85177430869633 1 0 -1
4063 15 15 0 -39.2623233016328 -4.78793650196889 63.21056067456701 0 0 0
4065 15 17 -0.46 -38.39806680358746 -5.414614732673827 62.30483715121762 0 0 0
4064 15 16 0.46 -39.26694326928932 -3.870742591620622 64.2682628948158 0 0 0
3245 15 16 0.46 -44.45419112569419 -7.15302531769264 122.38167194416998 1 0 -1
3244 15 15 0 -43.98284372588865 -5.896800743818255 122.7813361140564 1 0 -1
5948 15 16 0.46 -25.24359622669148 -11.75861359776618 122.44223071560442 0 1 0
5947 15 15 0 -25.037961434094075 -11.879934066746046 61.57009336617076 0 1 1
3238 15 15 0 -31.96622447859233 -10.783924807033493 119.20041511328562 1 0 -1
564 15 17 -0.46 -34.48969856750364 -8.558905039341958 62.04395835619431 1 0 0
3239 15 16 0.46 -32.17913729172893 -11.346305613406047 117.93613825965504 1 0 -1
6765 15 17 -0.46 -30.881584838842464 -9.817938460418079 62.350408153614936 0 1 1
6763 15 15 0 -31.454013894572245 -8.797190529370775 61.582034131787694 0 1 1
6764 15 16 0.46 -32.74363447546873 -8.479285352088366 62.02454408148969 0 1 1
5229 15 17 -0.46 -28.77693156859247 -9.685714936478671 66.9578638102338 0 1 0
5228 15 16 0.46 -30.61969099512061 -9.327935436995054 65.5535416465276 0 1 0
5227 15 15 0 -29.5585032305749 -10.171648142501695 65.90286871239199 0 1 0
2567 15 16 0.46 -27.5708735811995 -8.645720895627742 119.12535246777182 0 0 -1
5693 15 16 0.46 -30.996944504740593 -12.244971031532302 61.80352133612811 0 0 0
562 15 15 0 -35.82494174473266 -8.316549957475152 62.38803635891566 1 0 0
563 15 16 0.46 -36.84464510787062 -9.187051009652205 62.791066096483256 1 0 0
4597 15 15 0 -19.862373066653234 -11.861510273907227 123.49132366565932 0 0 -1
5603 15 16 0.46 -21.140039160553265 -7.631230528958907 118.5171274884698 0 0 -1
4692 15 17 -0.46 -21.1137438484588 -8.931122629402095 64.03318417473153 -1 1 0
4159 15 15 0 -25.55597490551756 -6.182003981044966 61.73858108182561 0 0 0
4160 15 16 0.46 -24.15767707382906 -6.183941628960866 61.80756962736631 0 0 0
4691 15 16 0.46 -22.71454574990653 -7.829934507788665 65.64954397494735 -1 1 0
4599 15 17 -0.46 -21.046090618811927 -12.557210408677133 61.513216847873906 0 0 0
3498 15 17 -0.46 -17.257793540916317 -12.737927237699019 65.89158929139049 0 1 0
4161 15 17 -0.46 -25.98423121036131 -5.133395368978504 62.56139121549051 0 0 0
4690 15 15 0 -22.34595304194276 -8.767396052005026 64.67727586956056 -1 1 0
3497 15 16 0.46 -18.22119383384724 -14.702594342782794 64.53542200871041 0 1 0
3496 15 15 0 -18.06601528543165 -13.852303772275784 65.63675100761084 0 1 0
6854 15 16 0.46 -15.088705655942887 -12.566803947515483 66.20125730572288 0 0 0
6853 15 15 0 -13.911477951489832 -12.16227686413822 66.84195440317416 0 0 0
1518 15 17 -0.46 -10.186991185823327 -14.296199050236556 68.50738148691401 0 1 0
1823 15 16 0.46 -12.967119214788319 -8.278311197559738 63.14486117744885 0 0 0
1822 15 15 0 -11.587971657875686 -8.041850387157963 63.099713625309604 0 0 0
6519 15 17 -0.46 -8.885394714026354 -11.799221501402235 71.54848202517763 0 0 1
5062 15 15 0 -17.39160647418751 -8.543141130519412 64.21974105318816 0 0 1
6855 15 17 -0.46 -13.670992331624962 -10.784792784255 66.77336667608986 0 0 0
5063 15 16 0.46 -18.777257379653726 -8.684082894997985 64.36154016181227 0 0 1
1839 15 17 -0.46 -14.169585941578116 -5.485740277575324 65.37809478425821 0 0 0
1824 15 17 -0.46 -10.686520288581034 -8.718682843151539 63.92994446993781 0 0 0
5064 15 17 -0.46 -17.464973038126722 -9.703455993544244 63.439813642502074 0 0 1
1196 15 16 0.46 -1.5798231761436576 -9.57658858977014 66.94658173215025 0 1 1
3369 15 17 -0.46 -7.986141721652387 -10.042735834810163 66.43235642190461 0 0 0
3367 15 15 0 -8.183539401145403 -8.658417766661694 66.5008957706648 0 0 0
3368 15 16 0.46 -9.518331190543215 -8.898680957073305 66.15361421588622 0 0 0
1195 15 15 0 -1.2515170963049613 -10.289132461275305 65.78705754131929 0 1 1
3364 15 15 0 -2.7260072929439625 -5.803985734333791 68.10440160367118 0 0 1
4280 15 16 0.46 -0.6935347900930848 -6.421430907182989 62.32959680341253 0 0 1
1017 15 17 -0.46 -4.1006411631147275 -12.312019963538075 70.61751987447148 0 0 0
2489 15 16 0.46 1.7303437823874648 -7.0897617881174035 118.94315565538777 0 1 0
6597 15 17 -0.46 2.868111439104373 -14.92996318599301 65.45812178282948 0 0 1
6590 15 16 0.46 5.416079328926702 -11.828058239910781 67.82183931563075 0 0 1
6589 15 15 0 4.277336370577125 -11.039802755382468 67.61710102922518 0 0 1
6591 15 17 -0.46 3.9307080463410613 -9.689787338491426 67.74865778121388 0 0 1
2228 15 16 0.46 11.749511641343734 -11.378240892166755 63.42001889388233 -1 0 0
2229 15 17 -0.46 10.439546489609937 -11.276559956401298 64.10376429074513 -1 0 0
2227 15 15 0 10.998784159964723 -12.511594369392922 63.75456058689253 -1 0 0
4281 15 17 -0.46 -1.1478038185861386 -4.611929123246462 63.961611773748764 0 0 1
4279 15 15 0 -1.2623443016226146 -5.932749187746776 63.51181755973619 0 0 1
3365 15 16 0.46 -3.7290958047973937 -6.584201157974791 68.69183443395939 0 0 1
1358 15 16 0.46 1.0725637740314207 -10.747989015039911 63.297634177561726 -1 0 1
4007 15 16 0.46 9.59775611312974 -9.730328987590747 64.50680392771946 -1 1 0
4006 15 15 0 8.686551443481779 -8.82411672662728 65.06221853690005 -1 1 0
4008 15 17 -0.46 8.307065422979475 -7.590599331859739 64.5196089193579 -1 1 0
352 15 15 0 11.57516821985462 -17.468495654280186 64.6232713995628 0 0 1
353 15 16 0.46 12.11943067328722 -16.191866365301006 64.4388912479628 0 0 1
5633 15 16 0.46 12.43703688256378 -15.959375764830721 61.848026192438205 -1 0 0
6045 15 17 -0.46 13.088730245909273 -10.829760451411547 121.47725696628449 0 0 -1
6043 15 15 0 12.338157579917048 -11.07697479554303 120.32160747741645 0 0 -1
6044 15 16 0.46 12.00405499791461 -11.313795554313714 118.98284260152725 0 0 -1
4309 15 15 0 -40.25235361199242 -2.512318926396753 71.85948023071653 0 0 1
4311 15 17 -0.46 -38.89226836701728 -2.2484843445043063 72.06087397391276 0 0 1
4371 15 17 -0.46 -38.93071190335992 0.2836904605529162 123.43513681545942 0 0 0
4310 15 16 0.46 -40.75794525059875 -3.178994248995796 70.73701815598577 0 0 1
1541 15 16 0.46 13.208748252984924 -4.987114585375261 67.26585029585678 0 1 0
6015 15 17 -0.46 -34.884156519500216 -0.10618626733223795 69.64229937146153 1 0 0
6226 15 15 0 -46.66920490255607 -2.4453605668291343 70.5005535321532 1 0 0
6227 15 16 0.46 -47.38723922146563 -3.1273294003532874 71.49017226023479 1 0 0
6228 15 17 -0.46 14.67838317026094 -2.8936716212805216 69.74173675235882 0 0 0
3778 15 15 0 -43.87700519720778 -2.060668852955067 65.15285498447619 0 0 1
3596 15 16 0.46 -46.29120673693596 2.9058169667678238 67.68918587791924 0 0 0
3595 15 15 0 -46.019025897827795 2.55789360781811 66.36070293594388 0 0 0
2779 15 15 0 -34.59829801226307 -1.8018506255650242 63.3289620273561 0 1 0
4369 15 15 0 -39.17845149237294 -0.1426056209072056 62.493812439555604 0 0 1
3433 15 15 0 -32.2877005609369 -0.8148944758378817 67.76369245797721 1 0 0
4370 15 16 0.46 -37.859141240325116 -0.6089437509978741 62.53796226701951 0 0 1
2780 15 16 0.46 -34.54804271171707 -2.961576651649664 64.11159217575944 0 1 0
3434 15 16 0.46 -33.47277267738035 -0.5729667830875417 68.46872796794018 1 0 0
6159 15 17 -0.46 -38.67631156543571 -2.8429030760226377 66.13016361185241 1 1 0
6157 15 15 0 -37.88194371078381 -2.129056295958 67.0353721436765 1 1 0
6158 15 16 0.46 -37.3429037728138 -3.420601669974865 66.9986775646635 1 1 0
2781 15 17 -0.46 -35.618853001055435 -1.0912571600152132 62.68590336628841 0 1 0
6005 15 16 0.46 -31.473054482280343 -4.744499262382995 65.34358709063113 1 0 1
5276 15 16 0.46 -27.57169635341844 -0.08135085999910763 68.06729625889702 1 0 0
5275 15 15 0 -26.98563620784297 -1.2094236180364673 67.48079360899497 1 0 0
6006 15 17 -0.46 -30.729496176789464 -3.981953520834806 63.51872468687801 1 0 1
6004 15 15 0 -30.286637971205582 -4.210025273790346 64.82710532157527 1 0 1
5277 15 17 -0.46 -26.660166715058125 -2.5675041965209333 67.57921490552006 1 0 0
4684 15 15 0 -25.999330860205898 -1.5462633180820378 62.840529499006806 0 0 0
2579 15 16 0.46 -26.319147927782343 -4.757184936135244 67.2881226497058 0 0 0
2578 15 15 0 -25.663299609128835 -5.641729809723727 66.42357458885064 0 0 0
2580 15 17 -0.46 -24.338658218770526 -5.368004788924677 66.06246546415515 0 0 0
4686 15 17 -0.46 -25.362054332228528 -1.476964322896236 61.595910570918605 0 0 0
2807 15 16 0.46 -20.640914500000093 -4.7922716142466895 122.84566595448625 0 0 -1
2806 15 15 0 -21.12503121009828 -5.073989810427951 61.87710643800534 0 0 0
2075 15 16 0.46 -23.18920633890354 -1.7929840465999838 65.26015417536058 0 0 1
2808 15 17 -0.46 -22.1351456317699 -5.869046532930289 61.32253122837626 0 0 0
2074 15 15 0 -21.949978206202015 -2.353190867660738 65.59254243140785 0 0 1
4586 15 16 0.46 -18.575918541349157 -6.696137102626474 68.63188136530113 0 0 0
4585 15 15 0 -19.751758856892188 -5.980829298112496 68.37549435871712 0 0 0
6172 15 15 0 -17.39404159668335 -1.3331066034615975 67.06821114284975 0 0 0
6173 15 16 0.46 -18.790415130593626 -1.2325905923587894 67.07433366740668 0 0 0
6174 15 17 -0.46 -16.07310569838367 -0.9330153385256397 66.83357241564309 0 0 0
4116 15 17 -0.46 -11.602966699437465 -0.6008321554623699 63.272529476754336 0 0 0
4115 15 16 0.46 -12.32193273539321 0.0862343391315422 62.71949463646707 0 0 0
1837 15 15 0 -13.370052686838067 -5.164953006018482 66.48165361865351 0 0 0
1838 15 16 0.46 -14.170834721114405 -6.150117568038509 67.07173744263123 0 0 0
1187 15 16 0.46 -13.719830298688109 -0.6527297822039685 67.08380263134819 0 0 0
522 15 17 -0.46 -17.048447849091527 0.06452127332606528 73.01796193486025 1 0 0
4477 15 15 0 -6.227004113030869 -2.472773912568534 61.812053284371096 0 0 0
4479 15 17 -0.46 -6.391178892207528 -3.1531678778713377 122.8512005130636 0 0 -1
4587 15 17 -0.46 -20.205968899905674 -4.971617348900481 69.232923351925 0 0 0
6808 15 15 0 -16.254863266111567 0.5587485065809911 61.98501247641431 0 0 1
3366 15 17 -0.46 -1.7382290522508297 -6.721937738576598 68.48077676905783 0 0 1
2382 15 17 -0.46 -7.928136407903885 -4.190329176497208 65.8343241099747 -1 0 1
2381 15 16 0.46 -7.49560163759227 -2.1368677535453893 65.81259918468197 -1 0 1
2380 15 15 0 -8.607622513127282 -2.9734090781216005 65.96624873609915 -1 0 1
4478 15 16 0.46 -5.963981253510253 -1.1956484914714534 123.5540057178734 0 0 -1
6086 15 16 0.46 -7.845646303101284 2.579390359574116 67.61386130301136 -1 1 1
3049 15 15 0 -7.041679307988516 -7.452646295611068 61.49326489467133 0 0 0
3051 15 17 -0.46 -5.980465740212915 -8.223392057134653 61.98293492097759 0 0 0
3050 15 16 0.46 -7.288262251967925 -6.1701485989587725 61.9976422433103 0 0 0
3336 15 17 -0.46 2.0078671930005605 -1.1169813166107867 66.40384143917359 0 0 1
3334 15 15 0 1.1596127407290364 -2.219166556042418 66.24367876500511 0 0 1
1078 15 15 0 3.207210095139524 0.43738535813032975 62.49028781294867 0 0 1
1080 15 17 -0.46 2.515509557105056 1.651684546470425 62.406455558538546 0 0 1
1079 15 16 0.46 3.6952951936614697 0.4882118391153594 123.43073754703303 0 0 0
3335 15 16 0.46 -0.001516425099637963 -2.330555172880016 65.46948780898332 0 0 1
4700 15 16 0.46 2.525417653116861 -8.284097084089549 68.72268144416446 0 0 0
4359 15 17 -0.46 -3.3621825658189706 -3.445367951227956 72.71902123435812 -1 0 0
1190 15 16 0.46 5.639643742655845 -5.246941152443791 66.5667344665009 0 0 0
439 15 15 0 4.11878322509688 -4.76257020973861 62.51121813741664 0 0 0
1191 15 17 -0.46 6.2282386954429825 -4.46965661491939 68.68579337884013 0 0 0
6394 15 15 0 0.41845647173318656 3.8099386884924615 62.139520050565466 -1 1 0
6396 15 17 -0.46 0.65529318177181 4.385096239552695 63.393753746587265 -1 1 0
3376 15 15 0 -47.271172956179086 -10.042256198575325 62.0283461742018 0 0 0
3378 15 17 -0.46 -47.29613661215612 -10.978521035715932 63.06891571566184 0 0 0
3377 15 16 0.46 -46.263859554274994 -10.987500386044019 61.80067725581134 0 0 0
1189 15 15 0 6.306580083399298 -4.260966288940299 67.30365338058516 0 0 0
440 15 16 0.46 2.91955885186421 -4.550555557101962 63.20180534386639 0 0 0
2790 15 17 -0.46 11.164245384635345 0.15947743394614378 65.49815635016122 -1 0 1
2788 15 15 0 12.539452626488867 -0.09654591529518476 65.44108545918314 -1 0 1
2789 15 16 0.46 12.514034450031646 -1.3690864287583382 64.8579949362787 -1 0 1
1540 15 15 0 11.884155551278536 -4.536212801995423 67.31212940934843 0 1 0
1542 15 17 -0.46 11.423648379137537 -3.2353275238315504 67.54799088890753 0 1 0
3597 15 17 -0.46 -44.970034995215045 2.781505548066924 65.46091641325425 0 0 0
1825 15 15 0 -40.836301311753175 4.959628482638915 65.01421616324765 0 0 0
1827 15 17 -0.46 -41.9867625215714 5.416061879582038 65.66851545169182 0 0 0
6041 15 16 0.46 -41.62528651459986 7.0591804045428495 67.93720513004143 1 0 0
6042 15 17 -0.46 -41.95423743543846 7.782667694590671 69.4232146508604 1 0 0
6040 15 15 0 -41.44665572295893 8.405578878147882 68.27676689254095 1 0 0
986 15 16 0.46 -41.979088916218366 -0.07334996572106268 67.57744948519088 0 0 0
987 15 17 -0.46 -40.578425580413494 1.4589107815583187 68.78160525787025 0 0 0
1826 15 16 0.46 -41.63460198181178 4.014064470942084 64.35952177655426 0 0 0
1070 15 16 0.46 -40.06139038671217 10.327984018440215 63.14696342467179 0 0 1
1071 15 17 -0.46 -40.85693993288443 12.08110666786907 64.34153066099417 0 0 1
1069 15 15 0 -41.021019671766915 10.71358931156245 64.0905842135388 0 0 1
6577 15 15 0 -45.57294645241595 5.884920058939881 61.4223254721514 0 0 1
6830 15 16 0.46 -35.02307295771327 2.5496970952334923 64.37867489006769 1 0 0
6829 15 15 0 -35.96099941998487 2.397837544158862 65.40689307125206 1 0 0
6831 15 17 -0.46 -35.9123716149581 2.2811094615480942 64.01261551950407 1 0 0
3435 15 17 -0.46 -31.868957371945424 -2.143457439225626 67.62378322315807 1 0 0