LAMMPS data file via write_data, version 31 Aug 2021, timestep = 15000

7236 atoms
32 atom types
7366 bonds
138 bond types
2655 angles
66 angle types
10 dihedrals
10 dihedral types
51 impropers
17 improper types

-46.232777433795874 16.63325841237794 xlo xhi
-28.17867557787627 46.843014915797475 ylo yhi
52.6245991948452 113.33640073809703 zlo zhi

Masses

1 72
2 72
3 72
4 72
5 72
6 72
7 72
8 72
9 72
10 72
11 45
12 45
13 45
14 45
15 24
16 24
17 24
18 72
19 72
20 72
21 45
22 45
23 45
24 45
25 45
26 45
27 45
28 45
29 45
30 45
31 45
32 45

Atoms # full

3886 15 15 0 -45.921819765401885 -25.015384387349403 54.699981243963514 0 0 1
3887 15 16 0.46 -45.32587071176972 -23.922117855212743 55.339991411996216 0 0 1
3888 15 17 -0.46 -45.20290872666022 -25.12427231373049 53.50360741531906 0 0 1
357 15 17 -0.46 -40.210888821312146 -26.516860496401378 57.49266750748128 0 0 0
356 15 16 0.46 -41.55014349501947 -24.900862280432648 56.873465712854895 0 0 0
355 15 15 0 -41.54642327688331 -26.27313414589619 57.15069501728401 0 0 0
2047 15 15 0 -44.94934896258007 -20.959238673374664 56.327593389416435 0 0 1
2049 15 17 -0.46 -44.96757224403965 -22.070843379574196 55.47670979622174 0 0 1
2929 15 15 0 -38.858493174208874 -20.91745013414869 54.14711475460165 1 1 0
6666 15 17 -0.46 -41.79634435682816 -21.36086136708124 58.05201553997183 0 0 0
6664 15 15 0 -41.03443598684375 -21.29727050643237 59.22481212855386 0 0 0
953 15 16 0.46 -34.64314655666153 -23.474055943399314 55.20284899943527 1 1 0
952 15 15 0 -34.99320316311044 -22.7980231941658 56.37777031350073 1 1 0
954 15 17 -0.46 -35.39034760428995 -24.1267058361944 56.569808668035265 1 1 0
5708 15 16 0.46 -30.978373649832083 -23.21324952126817 57.036348905947875 0 1 0
4953 15 17 -0.46 -37.62059762532125 -27.61751983403343 54.73512622088804 0 0 1
3216 15 17 -0.46 -33.49510713468071 -22.639455179166674 52.76516290181672 0 0 1
4413 15 17 -0.46 -32.14033701185063 -28.049022757515562 55.18452065329458 0 0 1
4411 15 15 0 -33.44302413496265 -28.097598636888183 55.69505629673322 0 0 1
1074 15 17 -0.46 -24.291605519083916 -24.932542465560676 57.27009343554303 0 1 1
5707 15 15 0 -29.83043841406732 -24.013407969115676 56.99172657041775 0 1 0
5709 15 17 -0.46 -29.188470863046955 -23.417972646416374 58.084125050789694 0 1 0
4485 15 17 -0.46 -28.544760151134742 -26.648280601922934 53.08286761622436 0 0 1
2465 15 16 0.46 -23.935581498435702 -25.60045984884731 59.14457761524255 0 1 0
1072 15 15 0 -24.608509554890894 -24.92481352048367 55.90645415204515 0 1 1
1073 15 16 0.46 -23.303304440932806 -24.473817194842347 55.67614582662858 0 1 1
4483 15 15 0 -28.59979736724205 -27.84767413177364 53.80288571696602 0 0 1
6878 15 16 0.46 -25.881942707793456 -21.594900319953666 57.73299794206485 0 0 0
1314 15 17 -0.46 -19.590700393825053 -25.700371540896157 59.68100107033314 0 0 0
712 15 15 0 -15.631659996213994 -24.643760719729357 53.4167042475999 0 1 1
713 15 16 0.46 -14.920413814833777 -23.483067194181515 53.08971891272478 0 1 1
714 15 17 -0.46 -15.696400104110875 -23.597969805853676 54.34521385061144 0 1 1
4614 15 17 -0.46 -21.71415014790033 -22.900819491217128 54.86480408169661 0 1 1
4612 15 15 0 -20.335176688541964 -22.714591831684096 55.018919159512635 0 1 1
4613 15 16 0.46 -19.315932204334143 -21.761175044634303 54.90875059963937 0 1 1
5287 15 15 0 -19.3894451026501 -28.105855415608325 53.05415606749859 0 0 1
4054 15 15 0 -14.092492499585012 -23.1782061749479 57.995582430319025 0 0 1
4056 15 17 -0.46 -13.543411501842407 -22.901793068167713 59.253400323465286 0 0 1
4055 15 16 0.46 -13.257354363426462 -22.859982783215294 56.91795625836137 0 0 1
5184 15 17 -0.46 -7.3438113417387685 -23.37727177423094 59.28232345656177 0 0 0
4879 15 15 0 -9.977147125124606 -22.85597826615491 54.81927789835035 0 1 1
4881 15 17 -0.46 -11.055069145441959 -22.997793327552998 55.70130545261137 0 1 1
5683 15 15 0 -7.1307594074602045 -26.640127887454163 53.02743199192292 0 0 0
5684 15 16 0.46 -8.502842953254905 -26.36307567677393 53.05250819412382 0 0 0
6680 15 16 0.46 -10.779538609131853 -28.021173816085543 55.77807587561811 0 0 0
6679 15 15 0 -11.46361002367604 -27.40486858275739 56.832691520879706 0 0 0
6681 15 17 -0.46 -12.278035416927002 -27.72723855322837 55.74054277593704 0 0 0
4880 15 16 0.46 -9.042486651379425 -21.868426202803523 55.15267064120648 0 1 1
5903 15 16 0.46 -0.6958388523639757 -26.682737254100076 57.85615674070791 -1 0 1
5902 15 15 0 -1.9104572467130692 -26.903856667054487 57.19599891009198 -1 0 1
6307 15 15 0 -5.499294870376373 -23.411805887272962 56.267875522455036 1 0 0
6308 15 16 0.46 -6.322587161144256 -23.88341580105494 57.29732872352091 1 0 0
6309 15 17 -0.46 -6.722164658330277 -22.80324315611733 55.96088874104901 1 0 0
6189 15 17 -0.46 -6.321256923873149 -26.24159316264879 58.000208780789094 0 1 0
6187 15 15 0 -6.836505785388486 -27.419861926564515 58.5535633964667 0 1 0
5808 15 17 -0.46 2.741880162659192 -27.232153205832613 55.37178100672991 0 0 1
5806 15 15 0 2.5521606711759994 -25.86652967276248 55.614842481415806 0 0 1
5807 15 16 0.46 2.6364523637910926 -24.8710137614086 56.59557841977941 0 0 1
4014 15 17 -0.46 6.163959020447873 -23.209392233727982 52.93685507085776 0 0 0
2072 15 16 0.46 2.4468057501149643 -21.925855731355558 58.43570641906967 -1 0 1
4012 15 15 0 7.191993777172336 -23.832599953159995 53.65432052466538 0 0 0
972 15 17 -0.46 7.404145148058562 -26.263959608674174 58.294680381933134 0 0 1
970 15 15 0 6.594847836694348 -25.210133448735196 58.73568864313366 0 0 1
971 15 16 0.46 7.837880334367638 -24.95916514429237 59.328887699010565 0 0 1
2073 15 17 -0.46 3.0584130057905354 -22.989947344306177 57.628154079391926 -1 0 1
2071 15 15 0 3.630559935404679 -21.715392010310623 57.718467929490515 -1 0 1
3786 15 17 -0.46 1.9980513679607266 -20.764010612234596 54.72539759926492 0 0 1
3785 15 16 0.46 1.3511252207804683 -21.55257981972992 53.31673922788037 0 0 1
1774 15 15 0 15.361350519130065 -25.287445394026538 59.74179254461728 -1 0 0
1064 15 16 0.46 11.801384043755526 -21.793236383946486 55.151511026683025 -1 0 0
1065 15 17 -0.46 13.191604006591225 -22.85871800317397 53.961486167658855 -1 0 0
1063 15 15 0 12.656515905710023 -22.896919283556905 55.254630160599646 -1 0 0
5370 15 17 -0.46 9.652785567798224 -20.894239205110438 53.35511724939087 -1 1 0
2583 15 17 -0.46 10.214850533458632 -23.79191001979058 59.16080353561204 -1 0 1
6587 15 16 0.46 8.852813337225681 -27.646106373452888 58.203349948016495 -1 0 1
2048 15 16 0.46 -43.733526433493275 -20.666438780451298 56.95691349911347 0 0 1
2844 15 17 -0.46 -40.23109659603058 -17.446211970777313 59.14404852686536 0 0 1
2843 15 16 0.46 -39.5156658353388 -15.37659680858395 57.581618208477835 0 0 1
2842 15 15 0 -39.900427151176814 -16.638903865096076 58.0491004273001 0 0 1
2942 15 16 0.46 -44.995728060290006 -14.850583219376837 56.12273860337624 0 0 1
2943 15 17 -0.46 -43.22827121390877 -15.537552180506363 54.826671884095084 0 0 1
2941 15 15 0 -44.4541312079586 -15.912901038367698 55.389149003532275 0 0 1
1353 15 17 -0.46 -38.82575552369626 -13.640177682650322 57.84426530686612 0 1 0
6665 15 16 0.46 -40.98570966797309 -19.903232711525845 59.34432937509798 0 0 0
2886 15 17 -0.46 -44.287050819973594 -17.484549815180223 58.81055944028309 0 0 0
2930 15 16 0.46 -39.92699151907033 -20.139277294126863 53.68585743153708 1 1 0
2884 15 15 0 -44.646835667168254 -17.505834061400435 60.16337200845071 0 0 0
1260 15 17 -0.46 -39.169866214291055 -14.032281251308667 53.13281045009298 0 0 1
1258 15 15 0 -39.35128362633986 -15.420368059229784 53.15020976849609 0 0 1
1259 15 16 0.46 -40.720750490582866 -15.234776115398686 53.37407610836306 0 0 1
360 15 17 -0.46 -41.71231692710442 -20.011362032599855 52.80211957438899 0 0 0
5198 15 16 0.46 -35.33000843126686 -18.252042621133302 54.668304916388905 0 0 0
5197 15 15 0 -35.137367124008705 -17.261824725686427 55.63905609268281 0 0 0
5199 15 17 -0.46 -33.93153115124038 -17.530125598121877 56.29782331153461 0 0 0
2931 15 17 -0.46 -37.93002978452224 -19.979003420217023 53.68098869963106 1 1 0
1372 15 15 0 -36.20428422061276 -19.760767488338015 59.983535444709716 0 0 0
5914 15 15 0 -30.641236188301974 -18.564265081420068 52.8659685323629 1 1 0
5854 15 15 0 -31.120665643108875 -19.314147056793086 58.318697171511914 0 0 0
5855 15 16 0.46 -31.667516277978002 -18.40343769061319 57.40679650066259 0 0 0
1147 15 15 0 -31.504604496977468 -14.589716768198324 59.70670586568576 0 0 1
5856 15 17 -0.46 -30.9710080487007 -20.65662181643434 57.95077853354677 0 0 0
1148 15 16 0.46 -32.44385113807457 -13.599018142112664 59.3963319307946 0 0 1
4336 15 15 0 -30.066768548706865 -13.48334357370911 53.27930607978604 0 1 0
4337 15 16 0.46 -28.91893690531284 -14.037277659828561 52.69996201391638 0 1 0
5916 15 17 -0.46 -29.590992171833005 -17.794578809974944 53.38033275100574 1 1 0
1000 15 15 0 -25.464128678009114 -19.87169391815466 53.616853361832476 1 1 1
6879 15 17 -0.46 -24.912493462707165 -20.257585518098825 57.41945959503978 0 0 0
1002 15 17 -0.46 -24.647239784517982 -18.737615860457076 53.697844069569314 1 1 1
4397 15 16 0.46 -23.417685855677362 -17.311046471775015 54.737878028740774 0 0 1
4319 15 16 0.46 -28.139445938165487 -15.247604654351795 57.62185161716677 0 1 0
4320 15 17 -0.46 -27.16798493463271 -15.58566997840116 58.10135376330733 0 1 0
4318 15 15 0 -27.37575729076291 -16.100664126127178 56.816203314590744 0 1 0
6062 15 16 0.46 -23.9163505292909 -13.367120704261508 57.39939702578943 0 1 0
6877 15 15 0 -25.581349718726962 -20.549398605992256 58.614230046012416 0 0 0
4396 15 15 0 -22.476754046532527 -16.448057363000274 55.312244748420476 0 0 1
5175 15 17 -0.46 -16.084555326377878 -18.30021419231747 59.20304365206562 0 0 0
4398 15 17 -0.46 -21.927505886286397 -17.671034659741924 55.715547352082794 0 0 1
5174 15 16 0.46 -18.063787641900937 -19.431655595010533 60.144557443451305 0 0 0
2717 15 16 0.46 -20.40601187673356 -15.985839500806081 59.115849336391186 0 1 0
2114 15 16 0.46 -21.987153113225048 -19.430797251387073 57.89586354872326 0 1 1
2113 15 15 0 -21.114024093558434 -19.562945998084444 58.98222556194092 0 1 1
5173 15 15 0 -16.68555813308823 -19.189436127068724 60.101976339803414 0 0 0
2115 15 17 -0.46 -19.955940481108986 -19.257103636654087 59.70700331858826 0 1 1
2716 15 15 0 -19.586660375869975 -14.85202469055298 59.17176976274293 0 1 0
2718 15 17 -0.46 -18.231534974606983 -14.517979154151314 59.281536453783694 0 1 0
5885 15 16 0.46 -18.330082427518636 -17.865581743118067 54.53872892593106 0 0 1
5884 15 15 0 -17.630982494241323 -18.68739312423419 55.430852985218635 0 0 1
5886 15 17 -0.46 -18.109533814988854 -19.96994014433303 55.13749011325527 0 0 1
7205 15 16 0.46 -13.05614930354503 -19.541488583636955 53.42871920922242 0 1 0
1060 15 15 0 -14.345041772236646 -14.852054324369233 55.8905487699727 0 0 0
1061 15 16 0.46 -14.565785107802787 -16.2208783785813 55.696659398387844 0 0 0
3175 15 15 0 -11.76558468036782 -18.858933780737974 56.988000466880905 0 0 0
3176 15 16 0.46 -11.326212844428404 -20.108262769874106 57.44201529779225 0 0 0
5764 15 15 0 -7.753285824655781 -19.257902725508824 52.962110540026096 -1 1 1
3194 15 16 0.46 -8.541726461044354 -13.402065560205926 57.443776017010066 0 1 1
3177 15 17 -0.46 -12.324237548611231 -18.877452987406894 55.70442576637148 0 0 0
5766 15 17 -0.46 -8.566375972663293 -19.800612091628487 53.96428365637833 -1 1 1
1062 15 17 -0.46 -14.406693994162355 -15.390179949284295 57.18152507314074 0 0 0
3193 15 15 0 -8.065548541321071 -14.369355372368057 58.33686336327322 0 1 1
7193 15 16 0.46 -13.973819014915403 -15.801280408215503 59.56389539723743 0 1 1
6194 15 16 0.46 -2.199285288328182 -19.51627667902028 58.63507013781817 0 1 1
6193 15 15 0 -0.9688207000998693 -19.501227756249893 59.30270059476245 0 1 1
3195 15 17 -0.46 -6.7868828843491045 -13.989618356556313 58.76208558341564 0 1 1
2280 15 17 -0.46 -4.077884619034208 -19.798340824527696 58.570047106897206 0 1 1
2278 15 15 0 -5.3039798695728075 -19.185828815497583 58.28453095052905 0 1 1
2279 15 16 0.46 -5.469162316516094 -20.42763646028794 58.90953377672055 0 1 1
5573 15 16 0.46 -4.032229603539671 -14.869042138729094 58.372273007387 0 0 1
5572 15 15 0 -3.0814600695384913 -14.870297274036714 59.399908992476604 0 0 1
5322 15 17 -0.46 0.5657424073468588 -14.98463643719874 57.02401905046808 -1 0 0
4072 15 15 0 -6.1192492363265645 -13.29224855158558 53.261112476602605 0 1 0
4112 15 16 0.46 -0.2856151390784043 -13.36262423514061 55.555800511109204 0 0 0
4817 15 16 0.46 -2.6031070264628626 -17.246001952983512 53.015702350421236 0 0 0
4816 15 15 0 -3.0339413666113844 -17.58213938810703 54.304652852208406 0 0 0
4818 15 17 -0.46 -3.7780452150608173 -16.47417773337089 53.88188762852373 0 0 0
3784 15 15 0 0.7631675974635789 -20.55263835624184 54.10059055484288 0 0 1
5321 15 16 0.46 2.538503846409765 -16.826048011535296 56.77321084936429 -1 0 0
5320 15 15 0 1.3586300683621853 -16.13717067327813 57.078736430472446 -1 0 0
941 15 16 0.46 6.678422639761669 -18.20685788457091 56.24265014752983 0 0 1
940 15 15 0 5.5392922967125715 -17.541213651635612 55.7743555642758 0 0 1
942 15 17 -0.46 4.453693413151187 -16.88950980282426 56.37164708225921 0 0 1
6677 15 16 0.46 6.561994334985033 -13.434245459763998 56.288315550146976 0 0 0
5487 15 17 -0.46 4.482955664418983 -13.141747468156488 59.740728872201124 0 0 1
762 15 17 -0.46 8.678049406598596 -18.898469070212695 56.49387418202018 0 0 0
1082 15 16 0.46 6.143189693706204 -14.138224556993011 59.801612578242505 0 0 0
1081 15 15 0 7.511122197617771 -14.419273566164257 59.90046660793331 0 0 0
4468 15 15 0 14.260862943594237 -18.016010439570287 53.71587069572205 0 0 1
4469 15 16 0.46 13.019495247465775 -18.427949627579856 53.21655882084747 0 0 1
6842 15 16 0.46 11.312158668166116 -14.55307894479158 52.967363654604306 0 0 0
4470 15 17 -0.46 13.505168276265513 -17.308772794408892 54.65860102993089 0 0 1
6841 15 15 0 10.333565783854219 -15.15542607191758 53.767072292307816 0 0 0
6843 15 17 -0.46 9.506545559308567 -15.553808755172383 52.71003455131875 0 0 0
761 15 16 0.46 10.26886019579096 -18.606115366814095 58.7620083848947 0 0 0
760 15 15 0 9.552533064709584 -18.861315961863344 57.58653056818963 0 0 0
3526 15 15 0 14.360259571173522 -20.25822289536765 59.68389091172857 -1 1 0
3527 15 16 0.46 15.223803857271001 -19.324201452252343 59.099172851678084 -1 1 0
3528 15 17 -0.46 13.156317627508033 -19.54497309213641 59.72629980788911 -1 1 0
1004 15 16 0.46 13.25384706806811 -16.0497362104201 56.47690209936658 0 0 0
1005 15 17 -0.46 12.661694867174363 -16.191465717905476 58.05648447035697 0 0 0
1003 15 15 0 13.67147296553646 -15.333325050942422 57.60488421817051 0 0 0
3696 15 17 -0.46 -42.797460790881914 -9.589161357582881 57.3852783945278 0 1 0
3968 15 16 0.46 -44.7572380848726 -11.01973232907926 58.01836294618751 0 0 0
3969 15 17 -0.46 -44.9514535480893 -13.072579749126238 57.15610779583208 0 0 0
3967 15 15 0 -45.65090698815009 -11.878317991687664 57.36706689117253 0 0 0
3694 15 15 0 -41.870176382644466 -8.802615089189175 58.07917218605189 0 1 0
3695 15 16 0.46 -41.640999126660915 -8.05062200838355 56.92073177249566 0 1 0
3984 15 17 -0.46 -44.8516998875171 -7.137111639648301 56.84651455362085 1 0 1
3982 15 15 0 -45.99359226657158 -6.665575480481558 56.187928609908404 1 0 1
5590 15 15 0 -42.4887654195581 -11.221289062506926 52.87588754556647 0 0 1
1628 15 16 0.46 -38.906832820641746 -10.95897983878082 54.23276044187776 0 0 0
1351 15 15 0 -38.116326820015445 -12.484360250996776 58.191823904917676 0 1 0
1352 15 16 0.46 -37.51546408478588 -11.265907861221487 58.529962555863314 0 1 0
5918 15 16 0.46 -37.53907622945444 -7.317218150727356 59.5065947253723 0 0 0
5917 15 15 0 -36.76820313162544 -7.664159619323015 58.39062596039172 0 0 0
5919 15 17 -0.46 -37.16477203313 -8.958297211149098 58.74831437197677 0 0 0
388 15 15 0 -31.995576463120106 -8.158291529973784 54.32714699060203 0 0 0
5137 15 15 0 -33.795329455833226 -12.563043011700548 55.95925191339788 0 0 0
5139 15 17 -0.46 -33.24111368145329 -12.689656374984283 57.23863220544026 0 0 0
5138 15 16 0.46 -32.714446049995 -11.71392771880197 56.22513587746746 0 0 0
6632 15 16 0.46 -31.84771236300981 -7.836844643637324 60.08542283290471 1 0 0
6633 15 17 -0.46 -31.599028121357783 -9.956087233614692 59.859142291712615 1 0 0
1629 15 17 -0.46 -37.61595388427035 -9.041490800474673 54.86138403504229 0 0 0
389 15 16 0.46 -31.82134897324679 -9.10111836457126 53.30698899218442 0 0 0
390 15 17 -0.46 -31.738466406983243 -8.312582948887767 55.694658810325386 0 0 0
1627 15 15 0 -37.802909790095875 -10.129799035543007 54.000783852170244 0 0 0
4338 15 17 -0.46 -29.676529732280752 -12.235095835016265 52.77971499799759 0 1 0
2651 15 16 0.46 -29.675076679219213 -10.636409735399212 58.37414273235418 0 0 1
2650 15 15 0 -28.786769275021058 -10.809022554660864 57.30591299569951 0 0 1
3360 15 17 -0.46 -26.26995370094371 -7.330297927984464 53.52294083296714 0 1 1
3358 15 15 0 -26.568181140664244 -6.175913383422741 54.25673693371639 0 1 1
2652 15 17 -0.46 -27.86435590308423 -11.257626954257066 58.25875488391346 0 0 1
6061 15 15 0 -23.975905724504955 -12.027553711926885 56.99688807958929 0 1 0
6063 15 17 -0.46 -24.21164853418949 -11.110203359844999 58.02785542107904 0 1 0
4873 15 15 0 -25.05511111531745 -7.803788281554481 59.044560631341696 0 0 0
4874 15 16 0.46 -25.09568413510134 -9.00399336533763 58.324934626442335 0 0 0
3840 15 17 -0.46 -20.189308020117515 -12.485213393772982 53.73249486456372 0 1 0
3838 15 15 0 -19.19169625868837 -12.353937042355236 54.70591013720778 0 1 0
3839 15 16 0.46 -17.810381696017632 -12.467589615340653 54.50829138402993 0 1 0
5133 15 17 -0.46 -16.710991569071595 -8.861011613281121 57.53076785393178 0 0 1
4033 15 15 0 -21.643388847307936 -7.899561343268508 54.62307835240658 0 1 1
4035 15 17 -0.46 -21.015601986831452 -6.6522295164404746 54.522843769568 0 1 1
4034 15 16 0.46 -21.491571421072628 -7.9147665729049566 56.01473932767481 0 1 1
5131 15 15 0 -15.583684533695191 -8.88634108479251 56.700986397243426 0 0 1
5132 15 16 0.46 -14.84794139623617 -8.022182090351958 55.88128445872573 0 0 1
4667 15 16 0.46 -16.642177521114426 -12.858696676329867 59.79625382180299 -1 0 1
3296 15 16 0.46 -18.509394223698592 -8.62323423783181 58.96677911206281 0 0 0
3295 15 15 0 -19.563935794829295 -7.7791208887503425 59.334766514917604 0 0 0
3587 15 16 0.46 -10.30557518208487 -9.45581078249835 54.0868789112403 0 0 1
4500 15 17 -0.46 -13.565719523786353 -6.919937173813445 54.9040755323319 0 1 1
4498 15 15 0 -12.86103126151259 -6.410187513982184 53.80700227255455 0 1 1
5400 15 17 -0.46 -9.886889277570134 -10.77661868387703 58.71400460468249 0 0 0
5398 15 15 0 -11.163224509923579 -10.668877781548558 59.279124302285375 0 0 0
4073 15 16 0.46 -7.4376508890481245 -13.020467472826192 53.64575793326978 0 1 0
3586 15 15 0 -10.270171165608124 -10.829162359914086 54.35641926151703 0 0 1
3588 15 17 -0.46 -9.125280393236487 -11.570162308471359 54.03996358440493 0 0 1
1971 15 17 -0.46 -8.251792118999349 -7.15163571191769 54.864108251536294 -1 0 1
3862 15 15 0 -9.216478417181134 -6.096324234933228 59.48195503303754 0 0 1
1969 15 15 0 -7.325070448170277 -6.129624593101195 54.62603217581146 -1 0 1
3926 15 16 0.46 -6.449021128426283 -8.56025354649046 56.65831601217249 0 0 0
3925 15 15 0 -5.893715264540295 -9.719522863395918 57.21305022638269 0 0 0
3927 15 17 -0.46 -5.468177281619825 -8.798291886621595 58.17754538579173 0 0 0
2012 15 16 0.46 -1.2982759311822656 -10.46509385732974 57.966574299941094 0 0 1
2011 15 15 0 -1.5559597514403007 -10.124558383099172 59.299853955365215 0 0 1
4111 15 15 0 -1.5065721553194078 -12.811004302191362 55.14962393120193 0 0 0
4113 15 17 -0.46 -1.453643740153651 -11.41209168718548 55.134065060885334 0 0 0
4703 15 16 0.46 -0.783115063488575 -8.576311114642705 53.05094740284497 0 0 1
3693 15 17 -0.46 0.8473494199470596 -9.169964714252522 53.83418561657882 0 0 0
3717 15 17 -0.46 3.4350227439058725 -7.805612593566131 58.16089190365241 0 0 1
5485 15 15 0 3.3049021246296926 -12.404149459292748 59.90847580872402 0 0 1
3715 15 15 0 4.834719001062058 -7.805065993196807 58.13173561906319 0 0 1
3716 15 16 0.46 4.942260148966508 -8.07368388993014 59.50150907736277 0 0 1
6678 15 17 -0.46 4.951051806432538 -11.923925354961389 54.61088064412687 0 0 0
6676 15 15 0 5.7363436242959125 -12.831453891844479 55.33178890149376 0 0 0
3691 15 15 0 2.115786046752445 -9.088697192413719 54.421096268784744 0 0 0
3692 15 16 0.46 2.6025457629633375 -9.510456101519372 55.66415073310413 0 0 0
4809 15 17 -0.46 13.28796831981253 -12.903836971154487 52.663693505250095 0 0 0
4807 15 15 0 14.655849568680903 -12.979149415526777 52.952187742137234 0 0 0
1257 15 17 -0.46 11.174030277969552 -11.696162863942734 57.560816494647646 -1 0 1
3922 15 15 0 9.540392420234177 -6.487210875212244 53.54375397359295 -1 0 1
1256 15 16 0.46 10.714917618793073 -9.753696303671564 56.94765468535121 -1 0 1
1255 15 15 0 10.467277308352697 -11.066563971550673 56.529261612577635 -1 0 1
3983 15 16 0.46 15.557548244292802 -7.146219131771335 56.193579951029506 0 0 1
3924 15 17 -0.46 9.797382831019993 -6.685762369046827 54.905566454465784 -1 0 1
5085 15 17 -0.46 13.368551233671296 -6.85921873155905 57.15857930746037 -1 0 1
5083 15 15 0 12.193074446957942 -6.569264907648819 57.86155946642497 -1 0 1
5084 15 16 0.46 13.204781613079534 -6.19502116214445 58.75396645259725 -1 0 1
6608 15 16 0.46 12.22211986076022 -10.886747470725247 59.492149509909595 -1 0 0
7047 15 17 -0.46 -43.67302383520512 -1.9756000139528898 59.67267959056149 0 0 1
6461 15 16 0.46 -43.475569903100194 -1.0042556895048735 58.032374087186135 0 0 1
6460 15 15 0 -42.949982649054775 -0.35590792301847246 56.9083619822346 0 0 1
6462 15 17 -0.46 -43.475084976537346 0.8426422155467732 57.40610198566789 0 0 1
1451 15 16 0.46 -38.75936254181261 1.554843078348592 57.18926203086559 0 0 1
4810 15 15 0 -40.37652173582905 -4.2415139833316164 55.44917693640337 0 0 0
4812 15 17 -0.46 -39.0583734262864 -4.190229340665954 54.980290042284125 0 0 0
4811 15 16 0.46 -41.46591603684826 -3.843251253011683 54.665208279794534 0 0 0
7120 15 15 0 -44.6703956422484 -2.793424272756732 53.03644716863342 0 0 0
7121 15 16 0.46 -46.00263806960311 -3.160006137856718 53.26172000529136 0 0 0
6057 15 17 -0.46 -41.512597454237536 1.501001002678039 52.86007841828883 1 0 0
1452 15 17 -0.46 -36.75786534070745 1.140150281475178 55.91829264404154 0 0 1
1247 15 16 0.46 -34.882488623959155 -3.557807214146074 56.587435476756156 0 0 0
1248 15 17 -0.46 -34.255863924515786 -3.6722232066322182 58.98624651672221 0 0 0
1246 15 15 0 -34.80332154042475 -3.0174161008284774 57.87650879411729 0 0 0
1431 15 17 -0.46 -30.659938127281034 -5.4056541254818145 59.04591263632714 0 0 0
1450 15 15 0 -37.938908098963324 0.6577899206094769 56.4948917122312 0 0 1
5165 15 16 0.46 -34.39614223555578 1.532130556063693 54.37697379893492 0 0 0
2351 15 16 0.46 -36.08386414240322 1.7642352898620073 59.65651883064052 0 0 0
6442 15 15 0 -30.984258475529472 -0.1909542744915973 59.32178329955637 0 0 0
6443 15 16 0.46 -31.863875846522394 0.749646377885259 59.8709132417344 0 0 0
3884 15 16 0.46 -36.98957996915552 -5.381826775701242 55.00850794691355 0 0 0
3885 15 17 -0.46 -35.4355246421048 -4.674668635259408 55.31990396007603 0 0 0
3883 15 15 0 -35.88652666696715 -5.298308958471096 54.150429753077624 0 0 0
3841 15 15 0 -31.394883340363194 -2.914312180621999 53.747527340454354 1 0 0
3842 15 16 0.46 -30.61363945330065 -2.158886950223806 52.86492283660931 1 0 0
3843 15 17 -0.46 -31.526569986947884 -4.008823471982494 52.88456519748507 1 0 0
3359 15 16 0.46 -26.144611577308304 -5.477304298202536 53.11984020531654 0 1 1
1430 15 16 0.46 -29.00901388895125 -3.5290600241179813 58.86679244445046 0 0 0
1429 15 15 0 -29.471920405882162 -4.821194167999601 58.590917634440174 0 0 0
2077 15 15 0 -25.189745932993 -1.4483421188010515 56.36182818604118 0 0 0
2079 15 17 -0.46 -26.561734460865612 -1.7184767433521988 56.29345594016739 0 0 0
2078 15 16 0.46 -24.09486686212222 -2.185616381159378 56.82837559224343 0 0 0
1440 15 17 -0.46 -22.88329494191416 -2.949552158554339 58.35352324249775 -1 1 1
6444 15 17 -0.46 -30.07398219231435 -0.5877974078556781 58.33491318869176 0 0 0
6529 15 15 0 -28.244239241942473 1.2192747262407324 53.219881086988075 0 0 1
4778 15 16 0.46 -21.22374437136855 -4.56615895421711 53.772575682666755 0 1 0
1439 15 16 0.46 -22.07733796206737 -3.6288381563713386 60.12974730020033 -1 1 1
1438 15 15 0 -21.63851617731847 -3.385921906875418 58.822679154708034 -1 1 1
4777 15 15 0 -20.966408033210634 -3.2250670036548827 53.463949064889434 0 1 0
4779 15 17 -0.46 -19.580790320937155 -3.3005497528263774 53.278568618208745 0 1 0
1209 15 17 -0.46 -19.660345445039273 -0.26193779292139985 57.07348445528785 0 0 0
1208 15 16 0.46 -19.352597248031206 1.8380448914464318 56.01387921084293 0 0 0
1789 15 15 0 -17.481812548472956 -4.292556034861329 56.4169315219081 0 0 0
1207 15 15 0 -18.7902521801826 0.6245686969777122 56.427695051675634 0 0 0
1790 15 16 0.46 -18.119766469653577 -3.0635502921119855 56.210631549199896 0 0 0
1791 15 17 -0.46 -16.29453909059005 -4.456088061205151 57.14056057920656 0 0 0
6478 15 15 0 -22.158019621013082 1.6043843179786914 59.60860980047389 0 0 1
6575 15 16 0.46 -16.858646207802664 -0.7036669893777667 59.98578260195942 0 0 0
5607 15 17 -0.46 -15.256941130111144 0.23028204576462313 59.022927827548706 0 1 0
6479 15 16 0.46 -20.914660843250143 1.8059473564240822 60.21970004854913 0 0 1
6421 15 15 0 -9.586032649047027 -0.6570422055688494 57.938039139278246 -1 0 0
6422 15 16 0.46 -9.08052893729226 -0.819836232593023 59.2334016762414 -1 0 0
3864 15 17 -0.46 -8.031380606475354 -5.39047706953855 59.24253289921319 0 0 1
631 15 15 0 -13.409115302602535 -3.993334076959661 58.24064814880902 0 0 1
633 15 17 -0.46 -12.696378653343984 -3.7163513766725775 59.41337448199406 0 0 1
632 15 16 0.46 -14.755231745990253 -4.28423742081888 57.98896230222087 0 0 1
6423 15 17 -0.46 -9.286799583422283 -0.5747351612183188 59.3032076720562 -1 0 0
5605 15 15 0 -14.18161128954498 1.0282982978469606 58.614472450058784 0 1 0
4659 15 17 -0.46 -7.444147382611805 -1.753027605885147 53.286659150502864 0 0 0
2996 15 16 0.46 -10.360908197203454 -0.6755883663786247 53.78642945126629 0 0 1
2995 15 15 0 -10.814749881670425 0.4308875981987073 53.05859796991007 0 0 1
2997 15 17 -0.46 -10.581115252692825 1.7579102498043877 53.438631839806334 0 0 1
5606 15 16 0.46 -13.13890777456876 1.8292971484068528 59.09527409445902 0 1 0
5408 15 16 0.46 -7.414049028217266 1.7694530605267056 56.81074872630412 0 0 0
5546 15 16 0.46 -4.061845100433327 -4.510373036634127 57.46214043681682 0 0 0
5545 15 15 0 -4.66428940307854 -3.2479242116193032 57.519445117508056 0 0 0
2953 15 15 0 -0.36237442898448763 -5.022793443520951 57.22844714788647 -1 0 0
5547 15 17 -0.46 -4.790076358741431 -3.6380112771146607 56.18078544338684 0 0 0
2954 15 16 0.46 0.19294339514227743 -4.201530318381973 56.239938678780206 -1 0 0
4657 15 15 0 -6.0788184695377625 -1.446270018107521 53.24450773929348 0 0 0
6330 15 17 -0.46 -0.450924814307682 -1.115367163119134 55.991363260716376 -1 0 0
6328 15 15 0 -0.0339460155885392 -0.17572609582070486 56.941733370760375 -1 0 0
2955 15 17 -0.46 -1.6796203686355926 -5.345122149252515 57.576250741793224 -1 0 0
5409 15 17 -0.46 -6.070702317389495 1.5830282659728365 57.15161344075435 0 0 0
1970 15 16 0.46 -6.7664285212781055 -5.1371541819042825 55.440232200632025 -1 0 1
3418 15 15 0 -1.4584407189245303 -3.1858644262318707 52.83248539666794 0 1 1
6329 15 16 0.46 1.1735514746154303 0.20537593790947378 57.53898629125376 -1 0 0
4637 15 16 0.46 5.397860020255167 -2.3420984225936894 56.75458810263311 -1 1 0
4636 15 15 0 4.680942361308978 -1.7343454601564987 57.792212990027394 -1 1 0
4638 15 17 -0.46 5.902489493895492 -1.7616595834303246 58.47564297293678 -1 1 0
933 15 17 -0.46 3.186444522268202 1.5597204174368855 53.605096158261105 0 0 0
932 15 16 0.46 4.4079983100519105 1.171952380418789 53.435281294921225 0 0 0
2201 15 16 0.46 7.51248972713759 -1.3915418041411058 59.83440629211562 0 0 0
4522 15 15 0 4.047700097035476 -2.647690828907772 53.363603372803716 0 0 1
4524 15 17 -0.46 4.073895914202666 -2.314810322853327 54.723200499842484 0 0 1
2232 15 17 -0.46 14.860097096144523 -3.8385841345400773 57.7803420328509 -1 0 1
2231 15 16 0.46 14.527396900051034 -1.217856340103118 57.95098054822697 -1 0 1
2230 15 15 0 15.064269666547057 -2.4643753688712655 57.607530488517966 -1 0 1
1767 15 17 -0.46 14.748636959243564 0.7914473021844379 55.49827166672927 -1 0 1
1765 15 15 0 15.271651871927164 0.8069714312671791 54.19972848203076 -1 0 1
1766 15 16 0.46 14.327001437012674 1.6752310285307885 53.63958490438698 -1 0 1
3263 15 16 0.46 11.47307006538984 -1.7568310851694877 56.76196261587508 0 0 1
3264 15 17 -0.46 9.495653398220501 -0.725929052890077 55.98395486624888 0 0 1
3262 15 15 0 10.204884209164005 -1.9151939981657855 56.190450742108425 0 0 1
2202 15 17 -0.46 9.555142127843268 -0.9451604686149383 59.862917219456435 0 0 0
6562 15 15 0 13.936700193886134 -4.581290650555063 52.79809382160453 -1 1 0
6564 15 17 -0.46 15.175263470912663 -3.928635459064169 52.7995803684787 -1 1 0
5489 15 16 0.46 -44.585470650936536 2.8036649144388366 57.17515929634503 0 0 1
5488 15 15 0 -45.264195015990744 4.0174930198697245 57.336263507286006 0 0 1
5490 15 17 -0.46 -45.199893424850984 4.710991135352618 58.550728685570355 0 0 1
6055 15 15 0 -42.233018458090356 2.6900549827177223 53.02483341748311 1 0 0
1435 15 15 0 -40.28923779402441 8.107999110533319 54.60142691924403 1 0 1
1436 15 16 0.46 -40.69408719118853 8.87940594171544 53.505512476223245 1 0 1
1830 15 17 -0.46 -39.73596305177805 2.8102854966277637 58.93659952438705 1 0 0
1828 15 15 0 -40.81425155308527 2.892657768155434 59.82570509564235 1 0 0
1437 15 17 -0.46 -40.51053362130077 9.243988810043215 55.38918040824806 1 0 1
2352 15 17 -0.46 -33.73190450739944 2.232960385456594 59.74204395262588 0 0 0
2350 15 15 0 -35.04679903271733 2.6416779349183592 59.99503081404575 0 0 0
5164 15 15 0 -33.07645299790837 1.8751316277785999 54.69441762206015 0 0 0