LAMMPS data file via write_data, version 31 Aug 2021, timestep = 15000

7236 atoms
32 atom types
7366 bonds
138 bond types
2655 angles
66 angle types
10 dihedrals
10 dihedral types
51 impropers
17 improper types

-47.03474583536021 16.31670681806754 xlo xhi
-28.192114874956673 45.354013500610776 ylo yhi
61.95070548079741 123.54099813628586 zlo zhi

Masses

1 72
2 72
3 72
4 72
5 72
6 72
7 72
8 72
9 72
10 72
11 45
12 45
13 45
14 45
15 24
16 24
17 24
18 72
19 72
20 72
21 45
22 45
23 45
24 45
25 45
26 45
27 45
28 45
29 45
30 45
31 45
32 45

Atoms # full

3514 15 15 0 -43.5375903887678 -21.353498914439534 67.37604064682502 0 0 1
2715 15 17 -0.46 13.483634285847318 -22.214429255004834 66.46477980177788 0 1 1
3515 15 16 0.46 -43.352325303832465 -21.089452818683032 66.01370569989764 0 0 1
3516 15 17 -0.46 -43.345969889498306 -22.335417269688854 68.35538630995126 0 0 1
5110 15 15 0 -42.15108746231418 -27.442537765944788 122.82730727059032 1 0 0
5111 15 16 0.46 -41.64641720460828 -26.663233245620305 121.7794559473631 1 0 0
3171 15 17 -0.46 -38.03525669739995 -25.28592358237363 64.07901312368735 0 1 0
3169 15 15 0 -37.51711518421504 -26.485996006890677 63.57765940800523 0 1 0
6653 15 16 0.46 -40.10878692940247 -25.481062782076943 72.17775429875964 0 1 0
5345 15 16 0.46 -35.720480888551805 41.42142169827966 62.0718387051181 1 0 0
6652 15 15 0 -39.26601973095078 -26.582644439660598 71.98733029583664 0 1 0
3170 15 16 0.46 -36.33917340342563 -25.737825760140076 63.69032902657187 0 1 0
5197 15 15 0 -39.597196708762844 -24.232357815958196 67.46484588552082 0 0 0
5805 15 17 -0.46 -36.38812459006421 -21.794674379249017 71.34227759677522 0 1 0
5198 15 16 0.46 -39.332072851249606 -25.151767014396466 66.44288890697197 0 0 0
1907 15 16 0.46 -33.1264483743581 44.238838291017416 66.42642847269111 1 0 0
6654 15 17 -0.46 -38.127241303757195 -27.159795335567356 71.41280393690042 0 1 0
4291 15 15 0 -33.151718077965945 -25.263057450622483 63.61247115663121 1 0 1
6022 15 15 0 -26.18336371514435 -27.987846702744122 121.76149881586781 0 1 0
4293 15 17 -0.46 -34.469213594873175 -25.732526277865453 63.55078985333378 1 0 1
4292 15 16 0.46 -32.56459177019807 -24.194286214172273 64.30022892130098 1 0 1
1206 15 17 -0.46 -29.02494624318519 -22.481492246442638 62.61068298348499 0 0 1
1204 15 15 0 -27.941064027636386 -23.304349900486766 62.93947565980116 0 0 1
1205 15 16 0.46 -26.985936876459125 -22.617932084117843 63.69879292317614 0 0 1
3945 15 17 -0.46 -29.9132132962585 -24.858357549618386 68.81192277314177 0 0 1
3943 15 15 0 -29.268268164164837 -23.705392358935132 68.34854706633203 0 0 1
6024 15 17 -0.46 -26.435867202091565 -26.73571583672173 121.18842789230459 0 1 0
6481 15 15 0 -20.59050352381163 -20.370762317792032 66.32060307040618 0 1 1
6482 15 16 0.46 -19.74193916218747 -20.65877976968728 67.39623519691837 0 1 1
6483 15 17 -0.46 -21.544016294292305 -21.299617006794513 66.75424158720142 0 1 1
2446 15 15 0 -25.958723885461993 -27.42856343305643 65.59957713288526 0 0 1
4577 15 16 0.46 -22.578773828856722 -21.966731801040893 70.9420235494574 -1 0 0
2448 15 17 -0.46 -27.001728530877024 -27.580276615558205 64.67809765948505 0 0 1
340 15 15 0 -21.667540456726815 -26.10259137211895 66.94477291435442 0 1 0
342 15 17 -0.46 -22.774614263009216 -26.239010933056854 66.098736691231 0 1 0
341 15 16 0.46 -20.687313048171756 -27.05450224765066 67.24976457417793 0 1 0
2193 15 17 -0.46 -17.531886011184312 -25.916260998905614 122.68282700444072 0 0 -1
2191 15 15 0 -18.547309456738148 -25.375124673784416 123.4803774441334 0 0 -1
2192 15 16 0.46 -19.308649776044142 -26.547229697370923 61.9708977324247 0 0 0
330 18 18 -1 -16.910336814262923 -24.2449709647505 66.65435536136316 0 0 0
1607 15 16 0.46 -14.055649880179244 -23.794546034460986 122.09322473533892 0 0 -1
1608 15 17 -0.46 -12.865785561983866 -23.97630231274205 121.09679176512701 0 0 -1
5099 15 16 0.46 -5.676005038932312 -27.584978768707106 117.51899364606895 0 1 -1
2478 15 17 -0.46 -15.302457952732533 45.35059597512961 69.94749295109598 0 -1 0
5098 15 15 0 -6.472085816189176 -27.960879236858496 116.43043761438032 0 1 -1
5100 15 17 -0.46 -5.831597413146223 44.379360396989604 116.1212338819286 0 0 -1
571 15 15 0 -12.5521687879524 -26.699314543722686 63.208796253875626 -1 0 0
573 15 17 -0.46 -12.877964081971285 -26.46882723344522 64.55071019530264 -1 0 0
572 15 16 0.46 -13.925548828093815 -26.96885540212357 63.174518112244385 -1 0 0
4426 15 15 0 -5.5087296353746185 -27.918069608885578 67.86559919336953 0 1 0
4428 15 17 -0.46 -6.005361807319472 44.32307885770363 67.76369765779022 0 0 0
5947 15 15 0 -9.237769774378544 -26.553022450234337 120.69092713372389 0 1 -1
5948 15 16 0.46 -9.207321562954702 -25.531221874144396 119.73437264540469 0 1 -1
2213 15 16 0.46 -11.536226663939964 44.55471249026632 66.39876364816251 0 0 0
2212 15 15 0 -11.312511562149222 44.619529475788354 67.77925280480919 0 0 0
4427 15 16 0.46 -5.631442824649505 -27.47617666067563 69.18835090684536 0 1 0
4534 15 15 0 -2.537940292270909 -23.106272695422042 70.76861252276336 0 0 1
4536 15 17 -0.46 -2.0702325228982374 -22.340366637623923 71.8431530539192 0 0 1
6818 15 16 0.46 2.1700410051894763 -27.970851253313178 64.73757287149682 0 1 1
6817 15 15 0 2.917872142110135 -27.056498599982774 63.986102435617894 0 1 1
6819 15 17 -0.46 1.939000645135883 -26.774739740539335 63.02567412619719 0 1 1
4907 15 16 0.46 -1.0361705530141543 -26.311556852960326 68.73945354334775 0 1 1
4908 15 17 -0.46 -0.4903592696267424 -25.516098987761595 66.64042128114416 0 1 1
4906 15 15 0 -0.12995022357388558 -26.387685250102752 67.67504329271236 0 1 1
5478 15 17 -0.46 1.904814857495949 -22.00914956400603 64.91868546351604 0 0 0
5476 15 15 0 0.5556884016357226 -22.203088358205772 65.23844404464086 0 0 0
6740 15 16 0.46 -6.760212634097488 43.74501099949403 72.2111543310372 -1 -1 1
1441 15 15 0 -7.729157044873131 -24.95683642981441 63.61444594566919 -1 1 0
1443 15 17 -0.46 -6.485093871826809 -24.673946745225443 63.03800839673342 -1 1 0
5477 15 16 0.46 -0.6976522114581217 -21.766178085753513 65.68369310010999 0 0 0
7106 15 16 0.46 7.536875631537473 -21.50806155949836 71.57320525729878 0 1 0
7105 15 15 0 7.840732339124332 -22.81220031708732 71.164679612805 0 1 0
2834 15 16 0.46 4.252786475328742 -25.999708362206025 69.39244737416102 -1 0 0
2833 15 15 0 5.025067478788315 -27.076947805184368 69.84315485600173 -1 0 0
2835 15 17 -0.46 5.481959146354368 -28.052577508527893 70.73724472064767 -1 0 0
7107 15 17 -0.46 6.462803823894358 -22.917563359733656 70.94060008192248 0 1 0
4472 15 16 0.46 11.15827161556311 -21.985745955412554 65.74835564555052 0 0 0
4471 15 15 0 9.942325973006607 -22.59907292460565 65.42384644196979 0 0 0
4473 15 17 -0.46 8.809293041729239 -21.931754305959483 64.94330275212519 0 0 0
4802 15 16 0.46 12.471578929000696 -26.00491529938023 70.40407400774541 -1 0 0
2714 15 16 0.46 15.470450926566782 -20.715103794076516 66.28983302680099 0 1 1
2713 15 15 0 14.837935895267268 -21.911287457676295 66.6490952960677 0 1 1
5316 15 17 -0.46 11.769255314813568 -26.546757127237736 66.97533575417556 0 1 0
5208 15 17 -0.46 -45.476602631810145 -26.36351133397101 63.2163191085485 0 1 1
4803 15 17 -0.46 12.791079743512046 -24.249865509051624 70.04342651267096 -1 0 0
4801 15 15 0 13.22050564965713 -25.053245878041693 71.10652263901747 -1 0 0
5207 15 16 0.46 -44.90947059144627 -27.172484952664803 64.63260394779773 0 1 1
1228 15 15 0 -46.863020485209375 -20.80536856008091 71.06206212434024 0 0 1
1230 15 17 -0.46 15.484954554029978 -21.211022880419293 71.95002453920578 -1 0 1
1229 15 16 0.46 -46.43683266412275 -20.292671196320317 72.29312075590515 0 0 1
1718 15 16 0.46 -45.99191663357392 -16.27050410884301 65.33917453609894 1 0 1
2107 15 15 0 -39.14494070357741 -17.81808865815591 66.55336083870647 1 0 1
2109 15 17 -0.46 -38.708123564772826 -19.09647005221129 66.18603019939142 1 0 1
2490 15 17 -0.46 13.75227712621382 -16.016396520095437 71.14566681249288 0 1 0
2488 15 15 0 15.087843634227085 -16.205988704522053 71.52025579561652 0 1 0
5803 15 15 0 -35.693616307616885 -21.75946092024566 70.1271980693709 0 1 0
5804 15 16 0.46 -34.75018796428192 -21.454891842643903 69.13867359422572 0 1 0
3040 15 15 0 -38.84037910760349 -18.302087253380133 71.38170208117963 0 0 1
2335 15 15 0 -32.01542907214573 -20.644893430978936 64.50238214171651 0 0 0
2337 15 17 -0.46 -31.448923554272163 -21.116145055388973 63.31200682077369 0 0 0
3041 15 16 0.46 -38.558340442112474 -19.667940032282242 71.50376918376463 0 0 1
1774 15 15 0 -36.22790688290557 -21.514781818007272 65.2339294281059 0 1 0
1776 15 17 -0.46 -34.8577323470898 -21.695310542621947 65.01025305252911 0 1 0
2108 15 16 0.46 -38.27033573268526 -17.713648954433374 67.6415513060315 1 0 1
3042 15 17 -0.46 -37.71875270926995 -18.07068484805706 72.18693940605475 0 0 1
1775 15 16 0.46 -37.069961943701166 -22.506543521738042 65.75099035063067 0 1 0
824 15 16 0.46 -42.263534974248394 -18.726093404448 123.38350107039287 0 0 0
1394 15 16 0.46 -30.228969517066417 -20.683743870628 75.46638202942654 0 1 1
5614 15 15 0 -31.381733159542563 -19.45601176216766 69.92817797466647 1 1 0
5616 15 17 -0.46 -32.082488134140824 -20.479489887686626 69.27899772838661 1 1 0
5615 15 16 0.46 -30.022771274844747 -19.271274839828084 69.64693988076192 1 1 0
1279 15 15 0 -32.286978204727085 -15.860280245933312 65.3209386362818 0 0 0
1281 15 17 -0.46 -33.10557950057433 -16.245555284098465 66.38932764006465 0 0 0
3316 15 15 0 -27.30582536143082 -18.1287581178329 63.667554691881485 0 0 1
660 15 17 -0.46 -28.548480154069217 -18.094021080775324 69.20967515820963 0 0 0
658 15 15 0 -27.627430279618174 -17.48382128713936 68.34983602173082 0 0 0
5141 15 16 0.46 -23.919449167069008 -21.865484504261442 66.64574424046455 1 0 1
3318 15 17 -0.46 -27.411322233224006 -18.621567528377145 64.97369759942296 0 0 1
4576 15 15 0 -21.232914392667755 -22.32096889206993 70.78977880780616 -1 0 0
445 15 15 0 -17.406528793796063 -17.989705183845224 70.20515143563887 0 0 0
446 15 16 0.46 -17.791158293349863 -16.74361985343503 70.7143974443709 0 0 0
5142 15 17 -0.46 -26.419893116885614 -22.448113749006794 66.10461299862207 1 0 1
5140 15 15 0 -25.26987552802864 -21.680978970347134 66.32589059959061 1 0 1
447 15 17 -0.46 -16.94098928813666 -19.305347611413453 70.09398502230832 0 0 0
4005 15 17 -0.46 -13.705888613681852 -21.56940154299039 62.13661017352164 0 1 1
6302 15 16 0.46 -22.018058179875954 -15.800569268827367 63.844122860187774 0 0 1
617 15 16 0.46 -18.57004848037315 -12.848153381789734 69.08332488262471 0 0 1
5811 15 17 -0.46 -24.12792332450192 -15.23760976443811 65.04809762059638 0 0 1
1886 15 16 0.46 -18.243823962728488 -14.70941693463129 73.46265544667821 0 0 1
1887 15 17 -0.46 -18.96544907352641 -16.466178518502215 75.16568296061695 0 0 1
4578 15 17 -0.46 -19.962720734557386 -21.782494248572984 70.55175962957242 -1 0 0
1217 15 16 0.46 -17.102655564838468 -21.209459380837387 70.70657835797637 0 1 1
4003 15 15 0 -14.36974870950788 -21.331853012651887 63.346097862133796 0 1 1
4004 15 16 0.46 -15.486625090727276 -21.822861578666032 62.65944093383802 0 1 1
1606 15 15 0 -14.139876575773378 -24.522223603172606 120.90016513083842 0 0 -1
848 15 16 0.46 -10.048142828482332 -19.93329854911904 65.09117255929092 0 0 0
1216 15 15 0 -16.313289171089163 -22.276960492457032 71.15081036167513 0 1 1
1218 15 17 -0.46 -15.73362716396178 -22.877951366614155 72.27455496196156 0 1 1
1885 15 15 0 -18.80355058762142 -15.170731110239469 74.66010913545662 0 0 1
6303 15 17 -0.46 -20.833913693192816 -17.091262060042233 123.3110460695453 0 0 0
5561 15 16 0.46 -12.899365321680209 -16.454537475070147 123.02570228097098 0 1 -1
5560 15 15 0 -11.604860989190513 -15.930956613005538 123.12630851360639 0 1 -1
1760 15 16 0.46 -5.610869508423897 -15.575707014987278 67.17103242829494 -1 0 0
1759 15 15 0 -6.2175639803587925 -15.786970064657027 65.92713141070222 -1 0 0
4301 15 16 0.46 -7.497670462067474 -22.80514396362212 67.5786295332119 0 0 0
4300 15 15 0 -7.244343676497297 -23.631643905296105 68.67986674023207 0 0 0
4302 15 17 -0.46 -5.846140875748737 -23.601138042845054 68.61584861518136 0 0 0
4602 15 17 -0.46 -9.589170663443703 -15.096685453129354 69.31434973511274 0 0 0
849 15 17 -0.46 -8.196892522807184 -21.691329668298156 65.93838335892129 0 0 0
847 15 15 0 -8.848388610425367 -20.53841042404279 65.48414766674806 0 0 0
5562 15 17 -0.46 -10.636830344052806 -14.920153441178895 123.16085728926451 0 1 -1
4535 15 16 0.46 -3.4781585211780306 -22.707936243266207 69.81084545665874 0 0 1
1761 15 17 -0.46 -7.389116935163074 -15.039193374164475 66.09533870913319 -1 0 0
1079 15 16 0.46 2.9526533308382574 -14.516350310811475 66.93119205371914 -1 0 0
4313 15 16 0.46 1.572162626230417 -11.225993173076201 121.62429196710237 0 1 -1
6833 15 16 0.46 -2.0939678926037173 -12.751694899218526 65.98320074396787 -1 0 0
6834 15 17 -0.46 -4.126040564108521 -11.25396026688212 65.87386571989758 -1 0 0
1231 15 15 0 -2.426427543664428 -15.20196444595017 62.07950036959315 0 0 0
1233 15 17 -0.46 -1.6443239132228258 -15.476125216251774 122.5414536331971 0 0 -1
1232 15 16 0.46 -3.428255202844371 -15.057498601886214 122.70259554720995 0 0 -1
1080 15 17 -0.46 5.057465421816058 -14.323953970144023 67.16640192628272 -1 0 0
1078 15 15 0 4.1341487397698655 -15.075184966008447 66.42942275730455 -1 0 0
6392 15 16 0.46 3.7681936517367873 -15.600241148034087 73.14716725849404 -1 0 0
4696 15 15 0 7.058376425571947 -18.708915839724632 67.54696152882305 0 0 0
2515 15 15 0 -0.019863762070596522 -11.81929392146322 69.25401080265358 0 1 0
6393 15 17 -0.46 3.3092023982909695 -15.969074210902074 71.2280167422552 -1 0 0
6391 15 15 0 3.0048901887995876 -14.968121866608218 72.15833307749148 -1 0 0
2516 15 16 0.46 1.0078213715263065 -12.603836962433391 69.79099821689083 0 1 0
437 15 16 0.46 7.735184863321744 -12.973126771066445 65.426815306187 0 0 0
438 15 17 -0.46 7.813860512901463 -11.098330725883018 63.83390562925126 0 0 0
4697 15 16 0.46 7.681719080597323 -19.101292700622757 66.35638001819149 0 0 0
4698 15 17 -0.46 6.426418274270232 -19.813006982706483 68.13143705696122 0 0 0
3716 15 16 0.46 13.173358444083505 -18.161023901525816 62.272772603395815 0 0 1
3717 15 17 -0.46 12.00925960649012 -20.369489681932496 62.40576304749992 0 0 1
3715 15 15 0 13.141347336222212 -19.54778590429172 62.46215696562885 0 0 1
6975 15 17 -0.46 14.766049200062731 -12.384539104649742 66.94813186556541 0 1 0
6727 15 15 0 11.671200175905044 -17.827898567685978 67.22983581756384 0 0 0
6728 15 16 0.46 12.552615580252041 -16.7412831060944 67.27855669204226 0 0 0
6729 15 17 -0.46 10.313484827664203 -17.723751662002957 66.90462441679828 0 0 0
2489 15 16 0.46 15.625034623125826 -16.35640999888789 72.80431158710199 0 1 0
2346 15 17 -0.46 10.067226595982968 -14.561281345481172 69.55160744980004 -1 0 0
6378 15 17 -0.46 8.378170034904617 -17.876824012950962 123.18353477213655 0 1 -1
6377 15 16 0.46 6.8840411561781 -18.39221835411805 63.31444027433605 0 1 0
2751 15 17 -0.46 -40.89862045273516 -13.221556191766462 68.27279941288712 0 0 1
2749 15 15 0 -39.64945389632177 -12.681848977693784 67.94371122194681 0 0 1
2750 15 16 0.46 -39.04068978303251 -12.847900034064152 66.69397792998016 0 0 1
3577 15 15 0 -46.483293307923766 -12.240689470282643 69.76894298209432 1 0 0
3578 15 16 0.46 15.883272007676737 -11.944418542175962 68.81909011509515 0 0 0
1144 15 15 0 -43.16119114857893 -8.867401731139822 70.90343575314276 0 1 0
5904 15 17 -0.46 -44.884667949230824 -14.72617475458858 65.9162045449163 1 0 0
4725 15 17 -0.46 -37.359949291897905 -7.817061883388742 65.34980394314915 1 1 1
4723 15 15 0 -37.20003167016564 -6.796582666789518 66.29481638896605 1 1 1
4724 15 16 0.46 -38.33146641475671 -6.5293257360823285 67.07483507574297 1 1 1
1009 15 15 0 -34.63605709882124 -11.764371268416287 66.62568347958552 1 0 0
1011 15 17 -0.46 -34.441500552828224 -13.101492346320663 66.25927527357054 1 0 0
1010 15 16 0.46 -33.72449998667846 -10.816329755869855 67.10555942375296 1 0 0
6811 15 15 0 -35.20964237059377 -16.153063645942982 69.04296889238218 0 0 0
6813 15 17 -0.46 -34.94908225387443 -17.047197177944426 70.08826007312122 0 0 0
3005 15 16 0.46 -35.0992974713815 -12.540683988619193 62.86886451604261 0 0 1
5923 15 15 0 -39.695824239220016 -12.960365955460118 63.19051019553525 0 1 0
5924 15 16 0.46 -39.048122168503944 -13.994379144919748 62.503998176952244 0 1 0
5925 15 17 -0.46 -39.262033653004266 -13.249990699788036 64.48971889116575 0 1 0
3006 15 17 -0.46 -33.436097620978146 -13.811085291322092 62.92046482818137 0 0 1
1175 15 16 0.46 -28.86697436703436 -11.297836012362648 69.37545612520796 0 1 1
1174 15 15 0 -29.44253396934602 -12.109041816289906 68.39022707170741 0 1 1
659 15 16 0.46 -27.153085509907353 -18.19899263007722 67.24370447906118 0 0 0
1280 15 16 0.46 -33.38458802992877 -15.108554026810069 64.88486483163011 0 0 0
773 15 16 0.46 -26.62843844122988 -9.661580544952947 65.9823790085533 0 0 0
772 15 15 0 -27.29801452637876 -8.46222514304892 65.71179725358756 0 0 0
774 15 17 -0.46 -26.87165682039758 -8.251180115025141 64.3951047675845 0 0 0
4186 15 15 0 -28.296116740663308 -12.865886993954017 63.855107436106266 1 0 1
4188 15 17 -0.46 -27.100316621959593 -12.695826994143378 64.56302104149013 1 0 1
616 15 15 0 -18.189294994550597 -13.681564990415309 70.14183887575015 0 0 1
618 15 17 -0.46 -18.197680031805376 -15.059972323908344 70.38663044857078 0 0 1
3724 15 15 0 -19.793427189528142 -10.959094281501661 66.48389491120332 0 0 0
3726 15 17 -0.46 -20.4372398407606 -11.338077616719932 67.66790373791919 0 0 0
393 15 17 -0.46 -21.139317667135852 -8.601896086815117 71.62750759512329 0 0 0
391 15 15 0 -20.331321168412597 -8.11536933310109 70.59289009286846 0 0 0
4706 15 16 0.46 -24.231832821448606 -8.59453697326254 68.83478696520794 1 0 1
4705 15 15 0 -24.252717074851848 -9.991279247037424 68.7416479904981 1 0 1
4707 15 17 -0.46 -25.259265365018493 -10.016896480421002 67.76891765946259 1 0 1
5809 15 15 0 -24.25012087041001 -14.051471686922815 65.78168075892683 0 0 1
5810 15 16 0.46 -25.461170699730282 -13.779270401213124 65.13417417906626 0 0 1
6869 15 16 0.46 -10.231509450457853 -13.590837021876247 65.42030212736495 0 0 0
6868 15 15 0 -11.425909080943537 -12.89447135614406 65.64049382189863 0 0 0
6870 15 17 -0.46 -12.591758073030352 -12.348905967674197 65.08989911198874 0 0 0
4695 15 17 -0.46 -15.812220219199201 -17.49669418972763 64.33300895875527 0 1 0
3725 15 16 0.46 -21.006129851657146 -10.363287482262104 66.11733453248573 0 0 0
4693 15 15 0 -16.666149538551334 -16.42029064068674 64.06438260643112 0 1 0
4694 15 16 0.46 -15.988230451837683 -15.268401410684394 64.48100823415214 0 1 0
1700 15 16 0.46 -13.303848805859523 -9.048788064086974 68.34597985671464 0 1 1
1699 15 15 0 -14.703126842139806 -9.012126400185705 68.37199715064806 0 1 1
3307 15 15 0 -15.589671298943557 -11.800413624720793 64.06293289105267 0 0 0
3309 15 17 -0.46 -15.538755353433444 -13.188005551796653 64.24180773670562 0 0 0
3308 15 16 0.46 -14.44585082177727 -11.875396108087255 64.86670670451235 0 0 0
678 15 17 -0.46 -13.371470077740945 -8.279111564496574 63.481232501383445 0 1 0
1701 15 17 -0.46 -15.294202992682527 -8.163579127198435 67.42828294085491 0 1 1
677 15 16 0.46 -13.318839472947793 -8.450844317885087 63.68107661393983 0 1 0
676 15 15 0 -12.045849950355258 -8.523285275929505 63.1029330478879 0 1 0
1866 15 17 -0.46 -11.53250545148666 -8.977687062286025 70.86016684652044 0 0 1
1864 15 15 0 -10.183353809006315 -8.63729082110614 70.70550513638024 0 0 1
1865 15 16 0.46 -9.675038094049878 -7.619841323499186 69.88916473327099 0 0 1
1361 15 16 0.46 -4.600178812701821 -7.284507937289753 62.32574906605004 0 0 0
1362 15 17 -0.46 -4.686302895928409 -6.5449525336657235 64.69787920789251 0 0 0
1360 15 15 0 -5.286661727866898 -6.908848619616601 63.4866199823163 0 0 0
6965 15 16 0.46 -6.13960692533872 -11.444820018488896 66.37391612555336 0 0 1
6964 15 15 0 -7.284444487735783 -10.822085427613565 66.88533433509642 0 0 1
1022 15 16 0.46 -0.8265599592226626 -8.619204098217656 67.44506464583726 -1 0 0
1021 15 15 0 -1.4756679132602384 -7.41656624429916 67.14122084332097 -1 0 0
4312 15 15 0 1.3202156532560787 -11.70681901149078 122.91476832718108 0 1 -1
4314 15 17 -0.46 1.1823663676628708 -10.448768160687308 123.51335468791285 0 1 -1
1023 15 17 -0.46 -1.2294615328849863 -6.258817570842821 67.88888415482732 -1 0 0
2588 15 16 0.46 1.714477605049452 -1.7370827897084071 64.89007170483866 0 0 1
6832 15 15 0 -2.9960481396324212 -11.890676574986431 65.34688425568768 -1 0 0
2517 15 17 -0.46 0.1552245230202165 -11.434948668824859 67.91923635758869 0 1 0
436 15 15 0 8.36748586535578 -11.852263501916763 64.8755794449642 0 0 0
1266 15 17 -0.46 4.830661513310042 -9.436731626179931 62.5981186863106 0 0 0
1265 15 16 0.46 6.86320886686138 -9.607324673582497 62.86509233004436 0 0 0
2652 15 17 -0.46 7.206423821095899 -7.174516399583404 68.54736565698012 0 0 1
2650 15 15 0 7.310336952323319 -7.544970982349894 67.20127299179468 0 0 1
2651 15 16 0.46 8.191288628294812 -7.047181215289634 66.23373514115855 0 0 1
4362 15 17 -0.46 1.8779148802715908 -9.20785844787664 65.5493193145919 0 1 0
4360 15 15 0 3.1426121953323105 -9.676240502864294 65.9250305758604 0 1 0
4361 15 16 0.46 3.775007747534284 -9.457536306430036 64.69529713319174 0 1 0
3378 15 17 -0.46 5.084239256823103 -3.382277227340791 63.18135659222641 0 1 1
3376 15 15 0 4.699786207564465 -4.418563650400191 64.04060411319963 0 1 1
3579 15 17 -0.46 -46.104233488849104 -10.933299058727124 70.09611872284512 1 0 0
3276 15 17 -0.46 12.580383222984395 -10.002487141307938 121.17043312886086 0 0 -1
488 15 16 0.46 13.779553326940494 -9.175135118450292 66.09455966498108 -1 0 0
489 15 17 -0.46 13.217690244015165 -9.053697583776595 64.50497336493683 -1 0 0
487 15 15 0 13.645801409003475 -8.00853257237373 65.33222842201299 -1 0 0
3274 15 15 0 11.617623655319443 -9.771126268979273 122.16016347679657 0 0 -1
3275 15 16 0.46 12.632330516749228 -10.611090972752198 122.63432513887291 0 0 -1
6973 15 15 0 13.922618007136691 -13.296143210960171 66.30191071444348 0 1 0
6974 15 16 0.46 14.327336893341126 -12.343102174897766 65.35961808116518 0 1 0
4787 15 16 0.46 11.69569848584569 -9.577034046812384 70.74256723532787 -1 0 0
4786 15 15 0 11.374136249948492 -10.070605492146727 69.47253378821108 -1 0 0
4788 15 17 -0.46 12.514246155803367 -10.360725077820309 68.71360030721279 -1 0 0
5191 15 15 0 -41.274805284534004 -4.1935588392031224 67.99974403899499 1 0 1
5193 15 17 -0.46 -40.00165055211716 -4.4793687632612595 68.50707993821287 1 0 1
5192 15 16 0.46 -42.48028400987665 -4.751208602319969 67.55719710991039 1 0 1
1871 15 16 0.46 -44.89085462447856 -7.060141150748748 68.46608955301525 1 0 1
1870 15 15 0 -45.53701223705934 -6.111060530668688 67.6650113319329 1 0 1
1872 15 17 -0.46 -44.462578941380734 -5.399644696044346 67.11776312190108 1 0 1
1363 15 15 0 -43.56351497096292 0.6904503758992178 69.03503475844268 1 0 1
1364 15 16 0.46 -44.801115849515654 0.7135398816418678 68.38096217827281 1 0 1
6838 15 15 0 -43.14551862565702 -0.7295755128261873 63.685751381860186 1 1 1
6839 15 16 0.46 -43.747092123458486 -1.1766781441760772 62.503292687535954 1 1 1
4682 15 16 0.46 -32.50151704288156 -4.498443957294352 73.97777642218063 0 0 1
4683 15 17 -0.46 -32.17501222360203 -3.306037866858928 73.72083396273483 0 0 1
2313 15 17 -0.46 -41.24026799459117 -5.797560735166747 62.41491585393624 0 0 1
2311 15 15 0 -40.595862747328084 -4.7848858131768255 63.13549296963768 0 0 1
2312 15 16 0.46 -40.601151746628645 -4.432686989634129 123.37082141335463 0 0 0
1510 15 15 0 -37.677135357676455 -1.2947893778967674 65.46894870227732 1 0 0
6672 15 17 -0.46 -34.32492950053522 -0.3552709527146821 70.02249957018878 0 0 0
4996 15 15 0 -31.234592107712658 -9.284152735504355 63.32834222931986 0 0 0
4997 15 16 0.46 -31.657996911110057 -8.014998689609 62.916060310909764 0 0 0
1561 15 15 0 -34.75561663599562 -3.064523827239661 68.33653014103628 0 0 1
1562 15 16 0.46 -35.321371703962825 -1.827861935333507 68.66907873624697 0 0 1
4998 15 17 -0.46 -30.090941531319785 -9.988968494290585 63.72242103525158 0 0 0
4618 15 15 0 -25.078421817450398 -5.601822163855477 69.32859624454316 0 0 1
1563 15 17 -0.46 -34.705142014398795 -2.558571369325688 67.03212820033478 0 0 1
808 15 15 0 -26.649360128920204 -5.278978403251651 123.52685233376044 0 0 -1
810 15 17 -0.46 -26.00250491432097 -4.117246564292544 62.374689186175104 0 0 0
4203 15 17 -0.46 -25.0410729165859 -1.5378975599342914 66.07438104181028 0 0 0
809 15 16 0.46 -26.588799440765506 -5.992291118537118 63.13968783988345 0 0 0
4619 15 16 0.46 -24.940260381726482 -4.308810264042593 68.80991363964768 0 0 1
354 15 17 -0.46 -22.20640305224465 -8.072752607395037 64.72371353966916 0 0 0
352 15 15 0 -22.29859106022949 -6.739226988988387 65.13989955129712 0 0 0
353 15 16 0.46 -20.924769543239126 -6.575151921272364 64.9261384424826 0 0 0
5353 15 15 0 -18.48233805248067 0.06451041664367492 71.32399068044013 0 0 1
5354 15 16 0.46 -18.259818291165388 0.933097685017612 70.24879715690918 0 0 1
4205 15 16 0.46 -13.664557149531305 -3.942684394041892 63.182887069995495 0 0 1
4204 15 15 0 -14.312171742461341 -3.5200250350718383 62.01585904749595 0 0 1
5077 15 15 0 -18.166908304432436 -5.205283188055064 66.83100241478157 0 0 0
5078 15 16 0.46 -16.88999454382668 -5.760500736145316 66.97668948445002 0 0 0
4206 15 17 -0.46 -13.409047938689161 -3.518990738603508 122.53640111275743 0 0 0
5079 15 17 -0.46 -18.945637149644735 -6.276712273884325 66.37754778676074 0 0 0
3408 15 17 -0.46 -16.627285698241156 2.6158074051135523 68.8929726870272 0 0 0
3406 15 15 0 -16.86688459028196 3.9672697425604215 68.61703443052564 0 0 0
3407 15 16 0.46 -17.44009401916072 3.6475204773751377 67.3804296601726 0 0 0
5003 15 16 0.46 -14.724835202471118 0.6271733921042401 63.79496366846932 0 0 1
4069 15 15 0 -11.521129589617711 0.5238113601284743 64.46369010905191 0 1 1
4071 15 17 -0.46 -12.809713720971363 0.21689314817615984 64.01053213703948 0 1 1
4070 15 16 0.46 -11.355613582973534 -0.6731132269439196 65.17077990844663 0 1 1
7056 15 17 -0.46 -7.440166043091905 -1.3285181337759653 62.95375322895518 0 1 0
7054 15 15 0 -7.682876808417038 -2.5711278135145603 62.356247858087805 0 1 0
5969 15 16 0.46 -5.814666634242699 -5.336742958465442 69.46203166883565 0 1 1
7055 15 16 0.46 -8.71347053073071 -2.9752357172233364 63.213320423094885 0 1 0
1311 15 17 -0.46 -8.095070840837536 0.43338039252797206 66.88217764277435 0 0 0
5968 15 15 0 -6.887717311883043 -6.087494277555337 68.96712288926068 0 1 1
5970 15 17 -0.46 -7.971563834169347 -6.719443304147634 69.58834518757017 0 1 1
1309 15 15 0 -7.697108377251664 -0.7377001307472211 67.53807114448195 0 0 0
1310 15 16 0.46 -6.331348330100619 -1.0445119856743315 67.56186146356718 0 0 0
322 18 18 -1 -12.418586406314748 -4.96069638943046 66.70159350928284 0 0 0
1028 15 16 0.46 -3.6246290765486484 2.084291606610391 71.19957665651623 1 0 0
4990 15 15 0 -2.5429963672857165 1.7944773666696907 65.36138351337671 0 0 0
4992 15 17 -0.46 -2.8095875633233702 0.66431006613527 64.57930231107227 0 0 0
4991 15 16 0.46 -2.0773753104525468 1.0067777642778155 66.42097134259393 0 0 0
2587 15 15 0 1.9367672155894142 -0.7220552796057321 65.82831819845362 0 0 1
542 15 16 0.46 -0.04525905630575254 -4.523885900141523 68.97126338371699 -1 0 1
3173 15 16 0.46 -1.5000355584313843 -1.0100067079762214 62.573651739681345 -1 0 1
3172 15 15 0 -0.7479099445258806 -2.096580974227278 62.11141432792072 -1 0 1
1120 15 15 0 -3.2495426542282395 -2.937202538923694 66.14909949559562 0 0 1
1122 15 17 -0.46 -4.41179322993366 -2.4996256294782913 66.79539667769835 0 0 1
664 15 15 0 7.666216919722144 -0.12922833447072618 63.62822523319294 0 0 0
2589 15 17 -0.46 1.9527228811900712 -0.1953455148471069 67.12536185247731 0 0 1
3174 15 17 -0.46 0.11433038774574254 -2.259712723625439 63.20225329025419 -1 0 1
666 15 17 -0.46 8.051671714612052 1.172739814167869 63.28719218343534 0 0 0
665 15 16 0.46 7.907524184556261 -0.2919146570669655 64.99764261455569 0 0 0
7182 15 17 -0.46 5.559853380469673 -0.6585443242207523 69.08884617815346 0 0 1
1042 15 15 0 0.7766589961618088 1.0355773470383578 70.499617839719 0 0 0
1044 15 17 -0.46 0.9153100110615432 0.9424705401911183 71.88962036438794 0 0 0
2251 15 15 0 9.624284630408793 -5.0362108774829855 63.694413329942705 0 0 0
1982 15 16 0.46 13.958971278409336 0.6473373842086049 62.65095694294519 0 1 0
1596 15 17 -0.46 9.84549454919323 -3.885282775612659 66.86072309991656 -1 0 0
1594 15 15 0 9.942255197931624 -2.9904738904928196 67.93308238484254 -1 0 0
1595 15 16 0.46 10.087528933850788 -1.6641332086833867 68.3570115504227 -1 0 0
1060 15 15 0 14.70722590463948 -3.2872989813662423 65.56886282824141 -1 0 0
1061 15 16 0.46 13.825159326164627 -2.5053843529667126 64.8135032681427 -1 0 0
1062 15 17 -0.46 14.64970005484452 -3.993650377964959 66.7762395222058 -1 0 0
6593 15 16 0.46 -46.89097704729642 3.604062817767101 65.64646905774578 0 0 0
6592 15 15 0 -46.81200753374186 2.2073983493328444 65.59086169724182 0 0 0
6594 15 17 -0.46 -45.771453785271305 1.5990200322504542 66.30298789381648 0 0 0
1471 15 15 0 16.024530433140573 -1.7807123128857754 69.9542315962604 0 0 0
2253 15 17 -0.46 8.903057190826893 -5.724303200466066 64.67744941038222 0 0 0
2441 15 16 0.46 -44.05616275591947 5.7656422131952105 123.32145399565903 1 0 0
2440 15 15 0 -43.14289035303944 5.126156335141755 62.57791474577896 1 0 1
2442 15 17 -0.46 -43.10179085170946 6.522007252945912 62.478360508018476 1 0 1
6906 15 17 -0.46 -39.36390006273068 8.459853156278237 64.3407007533829 0 0 1
2591 15 16 0.46 -41.76853560376741 5.733488194299953 67.90792244633263 1 0 0
6904 15 15 0 -40.603480502344006 8.6199473364701 64.97142271050569 0 0 1
2281 15 15 0 -39.76718396862568 8.705698477273563 69.98214956587428 0 0 1
1511 15 16 0.46 -36.351535413536304 -1.7043655394018908 65.6561174924728 1 0 0
1512 15 17 -0.46 -38.82789229494981 -1.4247643895952962 66.25562841324715 1 0 0
3991 15 15 0 -38.97742781085822 2.97002625797717 62.98539411988702 0 0 1