ITEM: TIMESTEP
0
ITEM: NUMBER OF ATOMS
321
ITEM: BOX BOUNDS pp pp pp
-1.0000000000000000e+02 1.0000000000000000e+02
-5.0000000000000000e+01 1.2500000000000000e+02
0.0000000000000000e+00 2.0000000000000000e+02
ITEM: ATOMS id mol type q x y z ix iy iz
192 1 6 0 -17.7529 -8.30511 70.8415 0 0 0
197 1 2 0 -10.8701 -8.01984 70.2402 0 0 0
149 1 6 0 -23.7713 -2.48426 69.9821 0 0 0
194 1 9 -1 -18.6424 -3.41561 71.022 0 0 0
203 1 14 0 -14.8739 -1.15608 67.7687 0 0 0
193 2 8 0 -15.3253 -3.97012 70.9488 0 0 0
191 2 8 0 -15.5756 -7.16521 70.8875 0 0 0
199 1 6 0 -13.5978 -4.57763 67.1511 0 0 0
200 2 8 0 -10.623 -1.04833 69.5666 0 0 0
198 2 8 0 -11.5353 -3.79131 67.4866 0 0 0
196 2 8 0 -10.5697 -5.61794 70.137 0 0 0
205 1 6 0 -6.63786 -2.68101 70.2272 0 0 0
141 1 6 0 -24.4232 0.867483 64.3996 0 0 0
140 2 8 0 -22.9081 0.303548 66.3437 0 0 0
138 2 7 0 -22.3793 3.44639 67.8412 0 0 0
136 2 8 0 -23.8391 5.26386 70.0046 0 0 0
106 1 10 1 -16.7414 5.18687 64.6637 0 0 0
143 1 9 -1 -18.3414 1.04311 65.217 0 0 0
146 1 12 0 -16.3712 2.3374 68.622 0 0 0
145 1 12 0 -17.7053 1.76386 70.4134 0 0 0
139 1 3 0 -20.6638 4.78443 67.625 0 0 0
144 2 8 0 -20.4981 0.555158 70.2324 0 0 0
142 2 8 0 -19.6616 -0.547279 67.0618 0 0 0
110 1 1 0 -16.0156 5.58274 70.8847 0 0 0
147 1 12 0 -15.011 1.8835 70.1316 0 0 0
101 1 3 0 -8.73833 5.38493 65.4855 0 0 0
102 1 10 1 -7.20306 2.62986 65.2707 0 0 0
202 1 14 0 -14.1306 -0.129993 66.5571 0 0 0
204 2 8 0 -7.68185 -0.338259 69.7368 0 0 0
99 1 12 0 -9.42284 2.89512 68.8404 0 0 0
98 1 12 0 -11.1613 3.42729 67.8458 0 0 0
97 1 12 0 -11.0676 4.91676 69.584 0 0 0
201 1 11 0 -12.8562 -0.372001 68.5969 0 0 0
131 1 10 1 -30.5327 11.4028 70.9907 0 0 0
135 1 6 0 -25.9687 9.53282 71.1175 0 0 0
105 1 5 0 -15.1166 7.98097 65.1415 0 0 0
107 2 8 0 -17.6067 9.59037 68.975 0 0 0
108 1 9 -1 -17.5582 12.8343 69.6278 0 0 0
109 2 8 0 -18.2454 6.5591 70.972 0 0 0
104 2 8 0 -14.5326 9.93919 67.478 0 0 0
103 2 8 0 -12.1343 10.8894 65.3682 0 0 0
100 2 8 0 -10.2261 8.15834 65.8174 0 0 0
96 2 8 0 -11.8179 7.51515 68.5717 0 0 0
95 1 10 1 -13.2191 15.536 71.4092 0 0 0
316 4 20 -1 -10.7605 46.6909 71.121 0 0 0
319 3 27 0 -6.35008 45.5814 70.5471 0 0 0
321 3 30 0 -6.2984 42.8817 70.4163 0 0 0
320 3 29 0 -4.18096 45.2744 70.8746 0 0 0
318 4 21 0 -6.90539 48.1804 70.3006 0 0 0
189 1 3 0 -14.6314 -10.2478 75.2617 0 0 0
190 1 10 1 -15.4857 -13.0259 76.382 0 0 0
34 1 12 0 -12.4772 -11.2343 72.1083 0 0 0
33 1 12 0 -12.41 -13.2159 72.7382 0 0 0
32 1 12 0 -10.6158 -12.2534 73.8326 0 0 0
29 2 8 0 -8.02078 -9.90032 77.5217 0 0 0
31 2 8 0 -10.276 -12.529 76.5825 0 0 0
252 1 11 0 -5.04992 -9.70182 71.7881 0 0 0
253 1 14 0 -6.53438 -11.1925 72.8156 0 0 0
257 2 9 -1 -2.01083 -12.181 76.0356 0 0 0
254 2 8 0 -3.03966 -8.94327 75.7893 0 0 0
258 1 2 0 -1.96119 -13.2189 73.6238 0 0 0
255 1 5 0 -0.224894 -8.11912 76.7426 0 0 0
256 1 10 1 3.4219 -8.67561 76.0314 0 0 0
150 2 8 0 -21.8745 -1.51594 74.677 0 0 0
151 1 6 0 -20.5557 -3.29092 74.2517 0 0 0
187 1 9 -1 -19.2688 -6.49028 73.9154 0 0 0
184 2 8 0 -17.1557 -2.87723 77.4394 0 0 0
186 2 8 0 -17.0579 -5.33021 75.3694 0 0 0
188 2 8 0 -14.7024 -7.48812 73.953 0 0 0
195 2 7 0 -12.426 -3.92253 72.4865 0 0 0
27 1 12 0 -8.11466 -4.67875 75.547 0 0 0
43 1 2 0 -12.2393 -3.96708 77.8876 0 0 0
26 1 12 0 -8.76344 -6.2563 77.1061 0 0 0
28 1 12 0 -9.28638 -6.00349 74.4467 0 0 0
251 1 11 0 -5.9496 -7.82041 72.818 0 0 0
25 2 8 0 -6.26859 -6.984 77.9419 0 0 0
248 1 3 0 -1.76735 -1.66492 75.6935 0 0 0
247 2 8 0 -4.71558 -3.13669 75.3722 0 0 0
250 2 8 0 -3.79885 -6.13311 73.7446 0 0 0
137 1 2 0 -23.0127 3.8355 72.0247 0 0 0
148 2 8 0 -23.1747 -0.875878 71.5979 0 0 0
152 2 7 0 -21.0418 1.43868 75.2286 0 0 0
180 1 1 0 -16.269 3.97941 77.3618 0 0 0
185 1 4 0 -15.4351 -0.721452 74.7477 0 0 0
212 1 14 0 -11.9164 2.30419 72.3912 0 0 0
211 1 11 0 -9.92665 3.07198 73.3155 0 0 0
210 1 11 0 -10.8595 5.03108 74.0983 0 0 0
47 1 1 0 -11.2431 2.79532 78.1172 0 0 0
246 1 1 0 -8.79642 -0.681509 75.3663 0 0 0
206 2 8 0 -6.16817 2.33372 71.6688 0 0 0
207 2 8 0 -6.79394 5.71678 71.9039 0 0 0
244 1 9 -1 -1.44488 2.67928 73.9834 0 0 0
243 2 8 0 -4.5313 2.98934 76.503 0 0 0
245 2 8 0 -5.76076 0.306692 74.7048 0 0 0
249 1 10 1 0.972575 -0.215464 76.2615 0 0 0
130 1 3 0 -29.7416 11.6662 74.0773 0 0 0
134 2 8 0 -24.4169 7.80572 72.5429 0 0 0
129 2 8 0 -28.2575 11.2037 76.7314 0 0 0
115 2 8 0 -22.2397 10.0369 74.9335 0 0 0
117 2 8 0 -23.2373 12.4923 77.6266 0 0 0
114 1 14 0 -22.9791 6.93282 77.8941 0 0 0
116 1 6 0 -22.0788 11.6711 73.0429 0 0 0
132 2 8 0 -27.173 8.41864 75.0385 0 0 0
133 1 6 0 -26.0449 7.3097 77.3329 0 0 0
112 1 11 0 -20.6691 6.45407 75.4026 0 0 0
111 2 8 0 -19.3166 8.42036 73.4346 0 0 0
90 1 13 0 -15.6731 7.67577 78.4936 0 0 0
113 1 11 0 -20.9248 7.87007 77.234 0 0 0
88 2 8 0 -15.6478 9.57983 73.8033 0 0 0
85 2 8 0 -16.5376 12.2294 76.0104 0 0 0
89 1 11 0 -15.1275 7.80239 76.4665 0 0 0
94 1 3 0 -13.0082 12.374 71.5139 0 0 0
93 2 8 0 -12.5707 9.0714 71.9583 0 0 0
213 2 8 0 -10.89 10.1342 75.0744 0 0 0
91 1 12 0 -12.4885 7.0676 77.4827 0 0 0
214 1 6 0 -9.25943 11.9617 73.9688 0 0 0
215 2 8 0 -11.5888 11.9452 78.0413 0 0 0
209 2 8 0 -8.53945 7.38137 74.5147 0 0 0
208 1 8 0 -3.53844 6.50073 72.5114 0 0 0
239 2 8 0 -5.49129 9.60351 78.106 0 0 0
241 2 8 0 -6.03134 6.15476 76.9624 0 0 0
240 1 1 0 -4.91568 10.8625 75.2389 0 0 0
126 1 1 0 -31.2349 16.7918 75.6694 0 0 0
125 2 8 0 -31.2312 15.0067 78.4169 0 0 0
121 2 8 0 -26.2107 14.2118 78.1365 0 0 0
82 1 14 0 -23.2259 16.3023 74.4891 0 0 0
80 1 11 0 -22.0516 17.2423 77.532 0 0 0
122 1 9 -1 -26.9598 16.6277 76.3507 0 0 0
87 1 10 1 -18.1061 16.9998 72.0239 0 0 0
81 1 11 0 -21.2391 16.0998 75.6912 0 0 0
83 2 8 0 -19.5963 13.2437 77.8298 0 0 0
218 1 9 -1 -14.5666 16.918 75.4372 0 0 0
217 2 8 0 -14.3569 14.2188 78.2483 0 0 0
86 1 3 0 -17.5436 14.4504 73.7185 0 0 0
236 1 9 -1 -8.61682 16.4042 75.711 0 0 0
233 1 9 -1 -13.0185 22.4061 77.6066 0 0 0
304 4 20 -1 -11.5957 36.9642 77.6029 0 0 0
307 3 27 0 -8.51395 40.2578 76.8051 0 0 0
305 4 22 0 -11.4512 40.5668 77.7936 0 0 0
306 4 21 0 -10.995 40.7937 75.9755 0 0 0
309 3 32 0 -5.96207 39.6603 77.3617 0 0 0
315 3 30 0 -6.69882 40.7227 73.7446 0 0 0
310 4 20 -1 -12.5298 41.6965 73.993 0 0 0
313 3 27 0 -8.16424 42.9889 73.4805 0 0 0
312 4 21 0 -9.97811 44.8481 72.8716 0 0 0
311 4 22 0 -10.5308 44.6251 74.6637 0 0 0
308 3 31 0 -7.28642 42.0884 76.9438 0 0 0
314 3 29 0 -6.17139 43.9089 73.798 0 0 0
317 4 22 0 -7.53353 48.0204 72.0743 0 0 0
38 2 8 0 -15.8524 -9.31114 79.1368 0 0 0
39 1 9 -1 -16.6531 -12.4597 80.0612 0 0 0
35 2 8 0 -11.2979 -12.7666 79.6803 0 0 0
36 2 8 0 -12.5423 -10.0324 79.3169 0 0 0
37 1 8 0 -10.0949 -8.28395 80.6375 0 0 0
30 1 6 0 -6.39329 -11.5361 78.8218 0 0 0
155 1 10 1 -23.6895 -1.77469 81.1939 0 0 0
41 1 6 0 -17.7917 -5.763 81.2034 0 0 0
40 2 8 0 -15.2806 -6.49347 80.501 0 0 0
42 2 8 0 -14.1789 -3.24506 79.6061 0 0 0
23 2 8 0 -5.1934 -4.08831 79.9818 0 0 0
24 1 9 -1 -1.02086 -4.86986 79.6305 0 0 0
154 1 3 0 -22.9012 0.869661 79.618 0 0 0
158 2 8 0 -22.0875 5.20544 85.1981 0 0 0
156 2 8 0 -21.8937 4.41067 81.6567 0 0 0
153 2 8 0 -20.7267 2.72325 78.7856 0 0 0
181 2 8 0 -17.784 0.378639 79.1164 0 0 0
183 1 10 1 -19.7123 -0.593907 85.2388 0 0 0
179 2 8 0 -15.6235 2.87948 80.4885 0 0 0
182 1 3 0 -18.4826 -0.496519 82.3025 0 0 0
177 2 8 0 -16.0065 5.38143 82.9424 0 0 0
48 2 7 0 -10.4963 5.13027 82.8702 0 0 0
49 1 3 0 -9.13612 3.5957 83.5925 0 0 0
46 2 8 0 -12.0155 2.82845 81.1153 0 0 0
178 1 6 0 -14.1027 4.64721 84.8337 0 0 0
44 2 8 0 -12.193 -0.739264 81.3816 0 0 0
45 1 2 0 -13.864 -0.712096 83.4799 0 0 0
21 2 8 0 -4.6335 -0.518366 79.5905 0 0 0
20 1 6 0 -0.95402 1.9147 79.3367 0 0 0
22 1 2 0 -6.5864 0.30304 81.2356 0 0 0
19 2 8 0 -2.76007 2.37009 80.6852 0 0 0
16 2 8 0 -1.99405 5.64234 80.3784 0 0 0
15 1 6 0 -4.95484 4.87285 84.5635 0 0 0
127 2 8 0 -30.34 12.0754 79.2479 0 0 0
128 1 8 0 -30.8154 11.1516 81.9785 0 0 0
118 1 12 0 -24.4199 10.8435 79.6467 0 0 0
120 1 12 0 -26.5235 11.1486 81.3407 0 0 0
119 1 12 0 -24.75 12.2175 81.4876 0 0 0
161 1 2 0 -25.6797 8.44357 84.3026 0 0 0
84 1 2 0 -18.9474 11.8917 80.0457 0 0 0
167 1 1 0 -21.1983 11.5911 85.1403 0 0 0
157 1 1 0 -20.6131 7.05635 81.3573 0 0 0
176 2 7 0 -16.2024 8.54071 83.4453 0 0 0
92 1 12 0 -13.0122 6.9247 79.5441 0 0 0
237 2 8 0 -7.94138 12.3203 78.7236 0 0 0
242 1 1 0 -7.43514 6.00407 79.4445 0 0 0
51 1 4 0 -12.2182 9.95211 82.3909 0 0 0
50 2 8 0 -12.1573 8.08729 84.6474 0 0 0
216 1 4 0 -12.9313 10.597 80.239 0 0 0
238 1 6 0 -7.07333 11.8042 81.1399 0 0 0
12 1 3 0 -4.02705 12.1032 83.9549 0 0 0
14 2 8 0 -3.94836 6.78371 82.9542 0 0 0
18 1 10 1 3.2238 7.69549 78.8922 0 0 0
17 1 3 0 1.06027 6.2376 80.227 0 0 0
124 2 7 0 -29.7049 17.89 80.0023 0 0 0
74 1 6 0 -29.307 18.9011 84.8766 0 0 0
73 2 8 0 -27.0707 18.5471 83.8221 0 0 0
123 2 8 0 -27.4413 15.705 80.9673 0 0 0
77 2 8 0 -22.9799 17.295 82.3557 0 0 0
75 2 8 0 -23.9717 19.7877 84.0583 0 0 0
71 2 8 0 -26.1113 16.0862 85.6782 0 0 0
78 1 2 0 -21.4095 16.1722 84.3651 0 0 0
221 2 8 0 -18.0536 18.6882 81.6461 0 0 0
219 2 8 0 -15.1188 16.8271 80.5569 0 0 0
79 2 8 0 -20.3461 16.1102 80.063 0 0 0
220 1 2 0 -15.5848 14.9517 82.4852 0 0 0
235 2 8 0 -8.78152 15.8561 79.5433 0 0 0
1 2 10 1 -10.4237 19.7629 84.7947 0 0 0
7 1 12 0 -9.56851 15.6616 83.2069 0 0 0
6 1 12 0 -8.99778 13.6891 84.2449 0 0 0
8 1 12 0 -11.1586 14.4222 82.7851 0 0 0
2 1 1 0 -13.8516 19.3654 84.9793 0 0 0
234 2 8 0 -11.5026 18.1941 80.3103 0 0 0
13 1 10 1 -2.48859 14.3353 82.7193 0 0 0
226 1 1 0 -22.2993 24.7293 85.4745 0 0 0
222 1 6 0 -17.7683 20.0074 79.2835 0 0 0
227 2 8 0 -17.453 25.4975 81.7952 0 0 0
223 2 8 0 -18.7249 21.57 83.8958 0 0 0
225 2 8 0 -20.3803 23.6686 82.5553 0 0 0
229 2 8 0 -15.7161 23.359 82.663 0 0 0
232 2 8 0 -12.724 21.5938 81.3369 0 0 0
228 1 6 0 -18.343 27.8893 81.5148 0 0 0
297 4 20 -1 -8.5333 33.9569 81.8401 0 0 0
291 4 22 0 -7.71109 35.2674 85.6461 0 0 0
292 4 21 0 -7.39383 35.3699 83.7868 0 0 0
300 3 27 0 -7.76915 39.2675 80.3644 0 0 0
299 4 21 0 -9.92834 37.2761 79.6583 0 0 0
298 4 22 0 -10.2965 37.0857 81.5013 0 0 0
294 3 23 0 -7.80086 40.1937 83.6276 0 0 0
293 3 27 0 -6.61816 38.2765 84.1473 0 0 0
296 3 28 0 -5.10459 38.604 84.6178 0 0 0
303 3 28 0 -6.29122 38.7164 80.7983 0 0 0
301 3 25 0 -7.86914 42.2242 80.0963 0 0 0
295 3 24 0 -5.55021 41.4838 84.2747 0 0 0
302 3 26 0 -5.14811 41.4128 80.8786 0 0 0
159 1 9 -1 -22.9989 1.78221 85.7979 0 0 0
163 1 6 0 -24.8937 5.01514 89.4183 0 0 0
165 1 7 0 -20.4272 5.03258 90.7564 0 0 0
55 1 12 0 -12.6074 5.72136 88.8698 0 0 0
160 2 8 0 -24.1262 7.73825 86.2079 0 0 0
162 2 8 0 -24.0547 7.24485 89.4233 0 0 0
174 2 8 0 -16.8718 9.02553 87.182 0 0 0
173 2 8 0 -15.9322 11.6229 88.6028 0 0 0
170 2 8 0 -17.5745 11.6583 91.6073 0 0 0
166 2 8 0 -20.38 11.0316 88.0047 0 0 0
175 1 9 -1 -16.0676 6.1571 87.8436 0 0 0
164 2 8 0 -20.726 8.13777 89.3269 0 0 0
52 2 8 0 -10.8371 10.7786 86.8748 0 0 0
54 1 12 0 -11.0203 6.13014 87.613 0 0 0
53 1 12 0 -11.485 8.17347 88.567 0 0 0
11 2 8 0 -4.03885 9.17944 85.765 0 0 0
9 2 8 0 -6.62437 10.6878 87.4398 0 0 0
10 1 8 0 -6.10257 9.4277 90.065 0 0 0
70 1 8 0 -29.089 18.3585 88.4444 0 0 0
72 1 6 0 -26.636 13.7057 86.3478 0 0 0
67 2 8 0 -25.2619 18.2567 91.9464 0 0 0
169 1 1 0 -23.4421 14.0826 90.2201 0 0 0
69 2 8 0 -25.9786 17.7636 88.8175 0 0 0
66 2 7 0 -21.5851 18.5764 90.6371 0 0 0
62 2 8 0 -15.7498 17.9272 91.2391 0 0 0
64 2 8 0 -19.0414 19.9775 91.8561 0 0 0
63 1 4 0 -17.204 15.9642 88.0124 0 0 0
168 2 8 0 -20.4093 13.0034 90.6724 0 0 0
57 1 2 0 -13.0899 14.9939 86.6749 0 0 0
3 2 8 0 -9.1335 17.1983 86.8472 0 0 0
60 2 8 0 -12.9075 18.5104 90.7848 0 0 0
58 2 8 0 -10.8585 15.5643 91.2478 0 0 0
61 1 8 0 -11.0522 19.8214 89.5242 0 0 0
59 1 6 0 -8.47572 15.0651 90.7673 0 0 0
56 2 8 0 -12.153 13.4157 88.5551 0 0 0
5 2 8 0 -6.9734 14.2353 86.8423 0 0 0
4 1 1 0 -6.94815 19.8162 87.8821 0 0 0
76 1 9 -1 -24.443 21.6778 87.6096 0 0 0
230 1 5 0 -14.4905 24.1967 85.7241 0 0 0
231 1 10 1 -14.9041 22.5633 88.587 0 0 0
224 1 9 -1 -18.8041 20.4099 87.5603 0 0 0
290 4 20 -1 -4.60021 33.6048 86.3936 0 0 0
284 4 20 -1 -1.3205 35.9888 90.8546 0 0 0
280 4 21 0 -2.36591 38.009 92.23 0 0 0
285 4 22 0 -4.79955 35.6561 89.9466 0 0 0
287 3 27 0 -4.39306 38.3082 88.3655 0 0 0
288 3 31 0 -6.24452 39.2617 87.6462 0 0 0
286 4 21 0 -4.46594 35.6579 88.0886 0 0 0
281 3 27 0 -3.70381 40.3257 92.1159 0 0 0
289 3 32 0 -4.15979 40.9833 88.3964 0 0 0
282 3 31 0 -5.73606 40.0664 91.3106 0 0 0
283 3 32 0 -4.89975 42.6978 91.7516 0 0 0
171 1 3 0 -18.8756 9.14765 93.2002 0 0 0
172 1 10 1 -20.4554 6.65159 94.4368 0 0 0
68 1 7 0 -23.9417 18.9115 94.9948 0 0 0
65 1 9 -1 -16.3522 22.8859 92.9142 0 0 0
279 4 22 0 -2.75476 38.0994 94.0759 0 0 0
275 3 23 0 -6.52993 40.5379 94.4889 0 0 0
278 4 20 -1 -0.0123662 40.3115 94.8426 0 0 0
270 3 30 0 -9.03792 45.5411 97.7784 0 0 0
276 3 24 0 -8.09936 42.6806 94.1308 0 0 0
267 4 21 0 -3.86395 45.3988 99.0568 0 0 0
268 3 27 0 -6.46563 45.1659 98.5235 0 0 0
269 3 29 0 -6.98742 43.0564 98.0694 0 0 0
277 3 28 0 -5.5129 43.5853 95.1676 0 0 0
274 3 27 0 -4.95552 42.065 95.2197 0 0 0
273 4 21 0 -2.04377 41.6611 95.9313 0 0 0
272 4 22 0 -2.51888 41.775 97.7547 0 0 0
271 4 20 -1 -1.37399 45.1809 98.1265 0 0 0
263 3 24 0 -10.8781 42.7016 100.386 0 0 0
264 3 28 0 -10.677 45.6016 100.84 0 0 0
261 3 27 0 -9.10272 45.4707 101.209 0 0 0
262 3 23 0 -8.35863 43.2809 101.084 0 0 0
266 4 22 0 -4.43586 45.5066 100.854 0 0 0
260 4 21 0 -7.53353 48.0204 101.649 0 0 0
259 4 22 0 -8.17505 48.0609 103.425 0 0 0
265 4 20 -1 -5.25872 49.021 100.698 0 0 0
