ITEM: TIMESTEP
1000
ITEM: NUMBER OF ATOMS
7236
ITEM: BOX BOUNDS pp pp pp
-4.7106954201788497e+01 1.6388915184518019e+01
-2.8275943194048573e+01 4.5437841819702619e+01
6.1880504495115503e+01 1.2361119912196789e+02
ITEM: ATOMS id mol type q x y z ix iy iz
6050 15 16 0.46 -44.3933 -26.1931 63.1489 0 1 1
6049 15 15 0 -43.7819 -24.9317 63.3657 0 1 1
6051 15 17 -0.46 -44.5868 -23.8447 63.7879 0 1 1
4328 15 16 0.46 -45.6014 -22.4953 64.3627 1 1 1
4327 15 15 0 -46.3251 -21.3563 64.7953 1 1 1
340 15 15 0 -42.1035 -23.0283 67.7079 0 1 0
342 15 17 -0.46 -41.1803 -22.0178 68.0784 0 1 0
1161 15 17 -0.46 -44.9012 -24.6106 67.957 1 0 1
1159 15 15 0 -46.1778 -25.1975 68.1426 1 0 1
341 15 16 0.46 -43.368 -23.653 67.8552 0 1 0
6279 15 17 -0.46 -40.7668 -21.3925 62.3086 0 0 0
4755 15 17 -0.46 -45.1215 -27.7209 62.855 0 1 1
3378 15 17 -0.46 -41.0735 -28.0614 65.4939 0 1 0
1020 15 17 -0.46 -46.4807 -21.6423 69.4126 0 0 0
6974 15 16 0.46 -39.9531 -27.4086 64.282 1 1 1
6975 15 17 -0.46 -39.8248 -27.6018 62.1255 1 1 1
6277 15 15 0 -39.5884 -21.6598 63.0483 0 0 0
6278 15 16 0.46 -38.3968 -22.1714 63.6204 0 0 0
5761 15 15 0 -34.0314 -27.217 63.0377 0 0 0
5763 15 17 -0.46 -34.5411 -26.0135 63.5891 0 0 0
3337 15 15 0 -35.6726 -23.3338 64.8395 -1 0 1
3339 15 17 -0.46 -36.8783 -22.8327 64.2867 -1 0 1
3338 15 16 0.46 -35.1585 -24.535 64.2874 -1 0 1
6973 15 15 0 -39.154 -26.9644 63.1989 1 1 1
7051 15 15 0 -36.1918 -27.8072 67.6959 0 0 1
3295 15 15 0 -33.6329 -21.6226 69.4364 0 0 0
7052 15 16 0.46 -35.4516 -27.4658 68.8555 0 0 1
1417 15 15 0 -26.9935 -22.2328 66.5574 0 0 0
1419 15 17 -0.46 -26.3119 -21.671 65.4464 0 0 0
1999 15 15 0 -30.2325 -23.7893 63.6289 0 1 0
2001 15 17 -0.46 -29.1937 -23.5367 64.5562 0 1 0
2000 15 16 0.46 -30.7576 -22.5259 63.9998 0 1 0
1418 15 16 0.46 -27.9898 -22.8603 65.7717 0 0 0
1849 15 15 0 -30.9029 -27.5494 67.2486 0 1 1
1850 15 16 0.46 -30.4479 -26.6055 68.2028 0 1 1
999 15 17 -0.46 -31.2572 -20.9711 64.6381 1 0 0
822 15 17 -0.46 -29.8351 -25.3677 69.3498 1 0 0
4877 15 16 0.46 -26.2618 -27.6805 68.8937 0 1 0
4876 15 15 0 -25.5593 -27.0321 67.8458 0 1 0
5564 15 16 0.46 -25.6373 -21.1039 64.0108 1 0 0
2032 15 15 0 -25.5954 -25.7381 62.8427 0 0 1
3551 15 16 0.46 -23.2857 -24.5155 64.6538 0 1 0
3550 15 15 0 -22.2061 -23.9735 65.3967 0 1 0
2034 15 17 -0.46 -24.5176 -25.2137 63.6005 0 0 1
3552 15 17 -0.46 -22.0475 -23.7056 66.7804 0 1 0
6962 15 16 0.46 -21.8459 -23.3999 68.4851 0 1 0
5565 15 17 -0.46 -24.2572 -21.37 61.9122 1 0 0
5647 15 15 0 -20.033 -27.9486 67.7917 0 0 0
4878 15 17 -0.46 -25.0461 -27.9221 66.8683 0 1 0
5649 15 17 -0.46 -19.123 -27.109 67.0985 0 0 0
711 15 17 -0.46 -16.1158 -24.3094 65.1434 0 1 1
710 15 16 0.46 -18.0383 -26.0279 66.2846 0 1 1
709 15 15 0 -17.1362 -25.1946 65.5732 0 1 1
4613 15 16 0.46 -14.9141 -23.0855 64.6258 -1 1 0
4612 15 15 0 -13.8816 -22.2127 64.2 -1 1 0
1294 15 15 0 -12.4461 -27.0417 66.2393 -1 0 1
1823 15 16 0.46 -14.5085 -21.6606 68.8301 0 1 1
1822 15 15 0 -13.2773 -22.0264 69.4274 0 1 1
6846 15 17 -0.46 -16.1045 -21.0824 68.1983 0 0 -1
4614 15 17 -0.46 -13.0684 -21.0528 64.1657 -1 1 0
1295 15 16 0.46 -11.7761 -26.5866 65.0768 -1 0 1
1296 15 17 -0.46 -11.4646 -26.4433 67.0684 -1 0 1
4545 15 17 -0.46 -8.19695 -22.7375 63.5936 0 1 -1
4543 15 15 0 -7.6376 -21.5444 64.1157 0 1 -1
3914 15 16 0.46 -10.1558 -25.6564 67.9575 0 0 1
3913 15 15 0 -9.08137 -24.9853 68.5929 0 0 1
2068 15 15 0 -9.91778 -25.313 62.8041 0 1 1
2070 15 17 -0.46 -10.7389 -25.8829 63.8078 0 1 1
2069 15 16 0.46 -9.18305 -24.1744 63.2154 0 1 1
1309 15 15 0 -5.14499 -26.1456 64.6191 0 1 0
1311 15 17 -0.46 -5.47054 -26.9025 63.4653 0 1 0
6152 15 16 0.46 -5.89018 -27.9434 62.0929 0 0 0
4644 15 17 -0.46 -1.14212 -21.7905 62.3536 0 1 -1
4642 15 15 0 -2.38964 -22.3423 62.736 0 1 -1
4841 15 16 0.46 1.50978 -24.4762 64.3539 -1 1 0
1310 15 16 0.46 -3.99642 -26.4139 65.4063 0 1 0
5259 15 17 -0.46 1.29463 -23.4487 65.764 -1 0 0
5258 15 16 0.46 0.491607 -21.7258 67.8088 -1 0 0
5257 15 15 0 1.11988 -22.5992 66.8868 -1 0 0
4643 15 16 0.46 -3.2016 -21.3359 62.1577 0 1 -1
5503 15 15 0 -1.30506 -27.2062 66.8978 0 1 1
5505 15 17 -0.46 -2.523 -26.769 66.3187 0 1 1
4840 15 15 0 1.70838 -25.3142 63.2262 -1 1 0
5504 15 16 0.46 -1.13688 -28.1194 65.827 0 1 1
1997 15 16 0.46 0.379545 -20.9725 61.9718 -1 0 0
4842 15 17 -0.46 2.40495 -26.5477 63.2987 -1 1 0
2220 15 17 -0.46 8.04943 -23.533 65.6941 -1 1 0
4571 15 16 0.46 3.25509 -28.0671 63.3416 0 1 0
439 15 15 0 5.68756 -25.4747 66.2929 -1 0 1
440 15 16 0.46 6.7623 -24.577 66.0596 -1 0 1
441 15 17 -0.46 4.89801 -25.8729 67.4029 -1 0 1
3911 15 16 0.46 3.90735 -26.2991 68.7399 -1 1 1
2218 15 15 0 9.11596 -22.6434 65.3959 -1 1 0
1160 15 16 0.46 16.1947 -24.5096 68.6599 0 0 1
2219 15 16 0.46 9.62744 -22.4777 64.0842 -1 1 0
2865 15 17 -0.46 10.2372 -22.5463 62.3748 0 1 1
1661 15 16 0.46 14.1412 -24.8215 63.4162 0 1 0
1660 15 15 0 13.4841 -25.2333 64.601 0 1 0
1662 15 17 -0.46 12.4882 -25.9451 65.3164 0 1 0
2723 15 16 0.46 13.0991 -22.2402 68.8158 0 0 0
5303 15 16 0.46 11.29 -26.8275 66.3111 -1 0 0
2724 15 17 -0.46 14.3585 -24.084 69.1619 0 0 0
5302 15 15 0 10.3247 -27.5333 67.0734 -1 0 0
2722 15 15 0 13.1468 -23.4601 69.5365 0 0 0
4359 15 17 -0.46 15.0603 -24.2625 61.9556 0 0 0
4329 15 17 -0.46 -45.2896 -20.3958 64.9169 1 1 1
1043 15 16 0.46 -46.4749 -15.3785 66.0133 1 1 0
681 15 17 -0.46 -45.3963 -14.1685 65.4701 0 0 1
6266 15 16 0.46 -43.9353 -19.2938 65.1847 0 1 0
6265 15 15 0 -42.8539 -18.3902 65.3334 0 1 0
6267 15 17 -0.46 -42.9584 -17.7466 66.5908 0 1 0
5198 15 16 0.46 -42.8321 -16.8207 68.1047 0 0 0
5197 15 15 0 -43.026 -16.3048 69.4113 0 0 0
1391 15 16 0.46 -40.0409 -20.722 68.4821 1 1 0
325 18 18 -1 -39.4264 -14.5397 66.3467 0 0 0
2834 15 16 0.46 -38.9718 -16.0114 63.4262 0 0 0
2833 15 15 0 -38.778 -16.5688 62.1441 0 0 0
551 15 16 0.46 -33.8787 -17.2371 61.9245 1 0 1
550 15 15 0 -33.3409 -15.9905 62.3332 1 0 1
552 15 17 -0.46 -34.1558 -14.8594 62.5975 1 0 1
5499 15 17 -0.46 -34.5169 -18.6816 65.7808 -1 -1 1
5498 15 16 0.46 -36.855 -18.6428 66.9362 -1 -1 1
5497 15 15 0 -35.838 -18.2314 66.0362 -1 -1 1
1390 15 15 0 -39.0842 -19.7464 68.86 1 1 0
1392 15 17 -0.46 -38.0367 -19.3245 68.0017 1 1 0
5903 15 16 0.46 -33.0931 -13.8332 67.6148 1 0 0
3297 15 17 -0.46 -32.4558 -20.8363 69.4118 0 0 0
5904 15 17 -0.46 -30.7563 -14.0221 67.3658 1 0 0
5902 15 15 0 -32.0131 -14.6319 67.1658 1 0 0
998 15 16 0.46 -32.8939 -19.2569 65.4742 1 0 0
997 15 15 0 -31.5784 -19.7043 65.1878 1 0 0
4748 15 16 0.46 -28.282 -13.8541 62.0009 -1 0 1
2199 15 17 -0.46 -27.8484 -15.7781 66.3244 0 0 0
2197 15 15 0 -27.0999 -16.9511 66.1373 0 0 0
2198 15 16 0.46 -26.0591 -16.3431 66.8787 0 0 0
1398 15 17 -0.46 -19.0478 -20.8127 62.3628 -1 0 1
5563 15 15 0 -25.091 -20.6319 62.7889 1 0 0
2016 15 17 -0.46 -24.2761 -19.4132 69.3192 0 -1 0
5772 15 17 -0.46 -22.2478 -15.2997 63.5013 0 0 1
5770 15 15 0 -23.2531 -15.9794 62.7711 0 0 1
1397 15 16 0.46 -20.5792 -19.6518 64.2496 -1 0 1
2643 15 17 -0.46 -19.6036 -14.4959 66.3115 -1 1 0
4914 15 17 -0.46 -21.5275 -19.4385 65.6753 0 1 0
4912 15 15 0 -22.3315 -19.2031 66.8205 0 1 0
4913 15 16 0.46 -23.2071 -19.2642 67.9348 0 1 0
5771 15 16 0.46 -24.5261 -15.5123 62.3604 0 0 1
4443 15 17 -0.46 -24.6996 -15.5887 67.8444 -1 0 1
1396 15 15 0 -19.7733 -19.838 63.0963 -1 0 1
2641 15 15 0 -20.0985 -13.7361 65.2182 -1 1 0
2642 15 16 0.46 -21.1479 -14.2832 64.436 -1 1 0
4441 15 15 0 -23.7099 -14.8795 68.5662 -1 0 1
5891 15 16 0.46 -19.0303 -15.4835 67.6011 0 0 1
3283 15 15 0 -15.8774 -16.6491 64.2164 0 0 0
3284 15 16 0.46 -16.4998 -16.3682 62.9749 0 0 0
2636 15 16 0.46 -14.324 -16.9048 66.956 0 1 0
2635 15 15 0 -13.6006 -17.0229 68.1713 0 1 0
3285 15 17 -0.46 -15.1947 -16.7478 65.4573 0 0 0
5890 15 15 0 -18.6088 -16.2855 68.6942 0 0 1
2637 15 17 -0.46 -12.2041 -17.2158 68.3203 0 1 0
6845 15 16 0.46 -17.7478 -19.2789 68.0282 0 0 -1
6844 15 15 0 -17.3539 -20.6076 67.7289 0 0 -1
5892 15 17 -0.46 -18.2214 -17.6218 68.4212 0 0 1
2501 15 16 0.46 -12.0847 -19.5888 64.0295 0 1 0
4544 15 16 0.46 -8.63686 -20.5367 64.1249 0 1 -1
5937 15 17 -0.46 -8.19258 -17.3084 67.5965 0 0 1
1634 15 16 0.46 -7.76325 -15.6925 62.3621 0 0 0
2500 15 15 0 -11.1014 -18.5682 63.989 0 1 0
2502 15 17 -0.46 -9.9357 -19.3745 64.0606 0 1 0
6551 15 16 0.46 -7.16444 -16.8482 66.1826 0 0 0
6552 15 17 -0.46 -6.92263 -16.1709 63.8603 0 0 0
6550 15 15 0 -6.31832 -16.542 65.0873 0 0 0
5936 15 16 0.46 -10.4412 -17.4508 68.5328 0 0 1
5935 15 15 0 -9.04321 -17.6305 68.6834 0 0 1
2709 15 17 -0.46 -5.24121 -13.9303 69.0157 -1 0 1
2614 15 15 0 -10.7126 -13.6903 65.8517 0 0 1
3564 15 17 -0.46 -2.34669 -13.7714 63.6097 0 0 0
5183 15 16 0.46 -2.26859 -14.6527 62.1649 0 0 0
721 15 15 0 -1.02611 -18.0528 65.3512 0 0 1
723 15 17 -0.46 -0.435033 -19.0632 66.1216 0 0 1
722 15 16 0.46 -1.18838 -17.6664 66.6894 0 0 1
3680 15 16 0.46 1.72528 -14.2214 67.8696 0 1 0
2130 15 17 -0.46 -0.168694 -20.7894 69.2011 0 1 1
6396 15 17 -0.46 -2.17073 -17.1514 69.4942 -1 0 0
6394 15 15 0 -2.79428 -15.8806 69.4777 -1 0 0
6395 15 16 0.46 -3.92634 -15.0405 69.3177 -1 0 0
5985 15 17 -0.46 2.43689 -15.7877 68.2 0 0 1
5984 15 16 0.46 3.54867 -17.8236 67.3523 0 0 1
1998 15 17 -0.46 2.56023 -20.099 62.5463 -1 0 0
4223 15 16 0.46 3.69946 -19.772 63.8648 -1 1 1
4222 15 15 0 4.6447 -19.5382 64.8949 -1 1 1
4224 15 17 -0.46 4.19051 -18.8014 66.0181 -1 1 1
4633 15 15 0 2.72132 -15.0888 63.245 0 0 1
4635 15 17 -0.46 3.82441 -14.6774 64.0343 0 0 1
3329 15 16 0.46 8.53926 -17.9755 66.8665 0 1 0
3328 15 15 0 8.14144 -17.9621 68.219 0 1 0
5983 15 15 0 3.04307 -17.0498 68.428 0 0 1
3330 15 17 -0.46 7.37063 -19.065 68.6678 0 1 0
2144 15 16 0.46 5.21085 -14.2156 65.0618 0 0 1
2143 15 15 0 6.26397 -13.7942 65.912 0 0 1
4916 15 16 0.46 6.45987 -20.4473 69.1769 -1 1 0
2280 15 17 -0.46 12.9398 -20.7472 67.9102 0 1 1
323 18 18 -1 9.5791 -17.9946 63.5926 -1 0 1
2099 15 16 0.46 13.0115 -18.2752 62.7182 0 1 1
2098 15 15 0 14.1831 -18.3251 61.9391 0 1 1
5791 15 15 0 11.5656 -13.604 61.9273 -1 1 0
5793 15 17 -0.46 11.6259 -13.7434 63.3361 -1 1 0
2278 15 15 0 12.8947 -19.5536 67.147 0 1 1
2555 15 16 0.46 11.4546 -14.1701 65.0885 -1 0 0
2556 15 17 -0.46 11.1418 -14.3529 67.888 -1 0 0
2279 15 16 0.46 13.8985 -18.5707 66.952 0 1 1
2554 15 15 0 11.423 -14.3039 66.499 -1 0 0
1042 15 15 0 16.0722 -16.3429 66.4432 0 1 0
1044 15 17 -0.46 15.0626 -17.3247 66.6125 0 1 0
679 15 15 0 -44.4375 -13.2129 65.041 0 0 1
680 15 16 0.46 -44.7937 -12.4755 63.8869 0 0 1
3430 15 15 0 -45.0068 -7.96205 65.509 0 0 1
3432 15 17 -0.46 -44.5859 -7.32844 66.7043 0 0 1
1911 15 17 -0.46 -45.2205 -11.4842 62.3859 0 0 0
1873 15 15 0 -40.2896 -10.1235 64.8173 0 0 0
3431 15 16 0.46 -46.1545 -8.78704 65.4081 0 0 1
4589 15 16 0.46 -43.8567 -6.54005 68.1537 0 1 0
866 15 16 0.46 -41.3398 -6.4782 62.281 0 -1 0
728 15 16 0.46 -40.1989 -6.8405 69.0722 0 0 1
4590 15 17 -0.46 -41.9519 -6.31276 69.3008 0 1 0
6970 15 15 0 -42.4204 -11.1069 69.2911 0 0 -1
6972 15 17 -0.46 -43.7711 -11.4899 69.4866 0 0 -1
1874 15 16 0.46 -39.9513 -11.3788 65.3644 0 0 0
4793 15 16 0.46 -35.1118 -13.4794 62.9323 -1 0 1
6528 15 17 -0.46 -34.44 -12.7849 68.2382 1 1 0
1875 15 17 -0.46 -39.1913 -9.24479 64.6533 0 0 0
4792 15 15 0 -35.9117 -12.3228 63.1214 -1 0 1
1904 15 16 0.46 -34.0589 -7.98103 62.8151 0 0 0
2097 15 17 -0.46 -35.4979 -7.62078 63.6349 1 0 0
2095 15 15 0 -36.6662 -7.35294 64.3982 1 0 0
2096 15 16 0.46 -37.8042 -8.14369 64.6979 1 0 0
6526 15 15 0 -35.5457 -11.9981 68.6476 1 1 0
729 15 17 -0.46 -38.4148 -7.12047 67.6386 0 0 1
727 15 15 0 -38.8521 -7.25866 68.9652 0 0 1
4794 15 17 -0.46 -36.2781 -11.5172 62.0124 -1 0 1
1355 15 16 0.46 -28.8015 -13.4089 67.4388 0 0 0
1903 15 15 0 -32.8562 -8.24354 62.1061 0 0 0
5621 15 16 0.46 -30.9605 -10.6007 62.9355 0 1 1
5620 15 15 0 -30.1186 -11.6599 63.361 0 1 1
1354 15 15 0 -27.881 -12.4056 67.8222 0 0 0
5537 15 16 0.46 -27.4537 -6.84198 66.0292 0 0 0
5531 15 16 0.46 -30.0522 -10.2149 68.2429 0 0 1
5530 15 15 0 -31.1565 -9.39384 68.5874 0 0 1
1356 15 17 -0.46 -28.7785 -11.3255 68.0242 0 0 0
5622 15 17 -0.46 -29.3127 -12.6013 62.672 0 1 1
1905 15 17 -0.46 -31.9949 -9.30707 62.4812 0 0 0
5536 15 15 0 -26.1753 -7.4073 66.2591 0 0 0
4442 15 16 0.46 -23.3392 -13.5108 68.5192 -1 0 1
3065 15 16 0.46 -24.9469 -10.0794 64.8628 0 0 1
3064 15 15 0 -24.5369 -11.2348 64.1567 0 0 1
3066 15 17 -0.46 -23.2813 -11.8615 64.1872 0 0 1
4519 15 15 0 -22.4282 -10.5346 68.8482 0 0 0
4521 15 17 -0.46 -22.827 -11.8882 68.7015 0 0 0
5538 15 17 -0.46 -25.6699 -8.55077 65.5953 0 0 0
1165 15 15 0 -21.1514 -6.97674 64.7237 0 0 0
1167 15 17 -0.46 -19.9615 -7.7194 64.5138 0 0 0
4761 15 17 -0.46 -19.5564 -6.96691 69.2362 -1 0 0
1256 15 16 0.46 -18.5614 -8.78793 64.3612 0 0 0
3151 15 15 0 -15.6715 -12.1663 67.5355 0 0 2
3153 15 17 -0.46 -16.3769 -12.1365 68.7646 0 0 2
3152 15 16 0.46 -16.2053 -11.3906 66.4742 0 0 2
4759 15 15 0 -18.3593 -7.61965 68.8533 -1 0 0
1257 15 17 -0.46 -16.8206 -10.3628 65.2161 0 0 0
5187 15 17 -0.46 -13.3609 -6.80755 66.0359 0 0 0
6353 15 16 0.46 -12.6994 -8.12626 65.101 0 1 1
6352 15 15 0 -12.1985 -9.14336 64.2501 0 1 1
6354 15 17 -0.46 -12.7532 -8.88456 62.9733 0 1 1
1255 15 15 0 -17.3894 -9.5683 64.1876 0 0 0
4760 15 16 0.46 -17.127 -7.86069 69.514 -1 0 0
2615 15 16 0.46 -10.9657 -13.5211 67.2346 0 0 1
2707 15 15 0 -6.2784 -12.9815 68.8211 -1 0 1
7035 15 17 -0.46 -11.2104 -13.1688 69.0087 1 0 1
675 15 17 -0.46 -7.35576 -9.79967 64.3801 -1 0 1
674 15 16 0.46 -8.35784 -11.9959 64.68 -1 0 1
1610 15 16 0.46 -7.47785 -8.08931 64.5282 0 -1 0
1609 15 15 0 -7.62309 -6.68346 64.6544 0 -1 0
673 15 15 0 -7.28167 -11.2052 64.2001 -1 0 1
2616 15 17 -0.46 -9.62313 -12.9409 65.336 0 0 1
7092 15 17 -0.46 -10.0081 -9.95599 69.4744 0 0 0
7090 15 15 0 -9.34305 -8.76813 69.0835 0 0 0
2708 15 16 0.46 -5.56907 -11.7808 68.564 -1 0 1
1611 15 17 -0.46 -8.41111 -6.18467 63.5864 0 -1 0
3562 15 15 0 -2.47983 -12.9951 64.7902 0 0 0
3563 15 16 0.46 -1.36581 -12.9249 65.6662 0 0 0
1583 15 16 0.46 -2.55867 -8.99782 67.2246 -1 0 0
2330 15 16 0.46 -1.04744 -8.40313 64.1726 0 1 1
2329 15 15 0 -0.109974 -8.40375 65.2371 0 1 1
2331 15 17 -0.46 -1.1236 -8.65768 66.1946 0 1 1
7149 15 17 -0.46 -2.36666 -8.46749 63.0604 0 0 1
3679 15 15 0 1.08987 -12.9802 67.6104 0 1 0
3681 15 17 -0.46 -0.0494824 -12.9886 66.764 0 1 0
1584 15 17 -0.46 -4.55574 -10.3807 68.2028 -1 0 0
1582 15 15 0 -3.73736 -9.24661 67.9705 -1 0 0
7147 15 15 0 -3.46956 -8.52413 62.1703 0 0 1
2145 15 17 -0.46 6.05377 -13.4673 67.2756 0 0 1
3889 15 15 0 4.7895 -10.2378 62.5072 0 0 0
1438 15 15 0 5.37083 -6.73644 66.1486 -1 0 1
1439 15 16 0.46 4.51176 -7.23339 67.1604 -1 0 1
825 15 17 -0.46 3.42739 -7.93877 68.4442 1 0 0
3947 15 16 0.46 5.78789 -13.0771 69.0034 0 0 0
3890 15 16 0.46 3.5032 -10.4874 61.962 0 0 0
823 15 15 0 2.55281 -8.46715 69.4263 1 0 0
7088 15 16 0.46 10.054 -9.70234 66.114 0 1 0
7087 15 15 0 9.55209 -9.58841 64.7936 0 1 0
7089 15 17 -0.46 9.52171 -8.36494 64.0783 0 1 0
5018 15 16 0.46 9.4578 -6.85436 63.1175 0 0 1
5130 15 17 -0.46 10.7327 -9.81439 67.7604 0 0 2
5449 15 15 0 14.6887 -10.5354 64.9911 0 0 -1
5450 15 16 0.46 14.2271 -10.0775 63.7319 0 0 -1
5451 15 17 -0.46 15.8746 -9.79211 65.2162 0 0 -1
1164 15 17 -0.46 13.7177 -9.39514 62.1241 0 1 1
5128 15 15 0 11.3157 -9.89205 69.0503 0 0 2
5129 15 16 0.46 12.5016 -9.12308 69.1681 0 0 2
4149 15 17 -0.46 13.9307 -8.12071 69.2625 0 0 0
4147 15 15 0 15.0929 -7.30866 69.2867 0 0 0
5122 15 15 0 -44.9284 -0.229182 68.7643 0 0 0
2493 15 17 -0.46 -41.1003 -5.46412 63.7457 0 0 0
2491 15 15 0 -40.9817 -4.7487 64.9635 0 0 0
6426 15 17 -0.46 -41.7537 -0.247752 63.5308 0 0 0
6424 15 15 0 -41.712 0.546852 64.7013 0 0 0
6881 15 16 0.46 -41.6425 -1.30057 61.9958 -1 0 0
5124 15 17 -0.46 -46.1433 -0.957853 68.6953 0 0 0
7099 15 15 0 -45.9634 -2.63965 64.1518 0 0 0
7100 15 16 0.46 -46.1493 -1.23537 64.1427 0 0 0
7101 15 17 -0.46 -47.0793 -3.50107 64.3036 0 0 0
6771 15 17 -0.46 -46.3491 0.54091 64.0932 0 0 0
6425 15 16 0.46 -41.1905 0.825891 65.9896 0 0 0
5123 15 16 0.46 -44.7752 1.16971 68.5991 0 0 0
4588 15 15 0 -43.3186 -5.94493 69.3219 0 1 0
6412 15 15 0 -34.0482 -5.34297 68.33 0 0 1
2492 15 16 0.46 -39.881 -3.94913 65.3619 0 0 0
2676 15 17 -0.46 -35.0755 -2.76957 64.1223 1 1 0
2674 15 15 0 -34.1687 -3.17544 63.1105 1 1 0
2675 15 16 0.46 -35.1311 -3.52705 62.13 1 1 0
6717 15 17 -0.46 -38.5617 -2.85037 65.7657 0 0 0
6716 15 16 0.46 -36.3404 -2.41102 65.2429 0 0 0
6715 15 15 0 -37.4237 -2.07111 66.0927 0 0 0
4436 15 16 0.46 -34.1617 -0.0274317 69.2784 1 0 1
2597 15 16 0.46 -39.8832 0.331454 69.5904 1 0 0
486 15 17 -0.46 -29.0629 -6.10081 65.8072 -1 0 0
3456 15 17 -0.46 -32.8872 -0.595677 68.2307 0 0 1
6414 15 17 -0.46 -32.9009 -5.38172 67.4971 0 0 1
484 15 15 0 -30.3337 -5.52431 65.5581 -1 0 0
485 15 16 0.46 -31.4699 -5.47247 66.4057 -1 0 0
3455 15 16 0.46 -32.1551 -0.217506 66.1909 0 0 1
3454 15 15 0 -31.8624 -0.99969 67.3374 0 0 1
6233 15 16 0.46 -27.2535 0.0697202 67.4029 0 0 1
6232 15 15 0 -26.7658 -1.05319 68.1187 0 0 1
5730 15 17 -0.46 -32.6321 0.815866 64.8884 0 1 0
1606 15 15 0 -29.3186 -1.68348 62.35 0 0 0
6234 15 17 -0.46 -26.4855 -1.35119 69.4746 0 0 1
1166 15 16 0.46 -21.7221 -5.68607 64.8595 0 0 0
1300 15 15 0 -24.4269 1.07747 63.0073 0 1 1
584 15 16 0.46 -23.4568 -1.62042 64.4884 0 0 0
583 15 15 0 -23.0592 -2.80687 65.1529 0 0 0
1302 15 17 -0.46 -23.9939 -0.0987262 63.669 0 1 1
585 15 17 -0.46 -22.4662 -4.08018 64.9587 0 0 0
1548 15 17 -0.46 -22.4164 0.792619 69.2248 -1 -1 1
6854 15 16 0.46 -21.0705 -6.01364 69.5777 -1 0 0
3900 15 17 -0.46 -19.2158 0.0359537 65.9875 0 0 1
5185 15 15 0 -13.9841 -5.70658 66.6755 0 0 0
5186 15 16 0.46 -14.7749 -5.27754 65.5814 0 0 0
5475 15 17 -0.46 -17.6386 -3.02797 68.4717 0 0 1
5474 15 16 0.46 -18.6936 -1.5474 66.6853 0 0 1
5473 15 15 0 -18.2251 -2.77948 67.2058 0 0 1
1728 15 17 -0.46 -15.6638 -4.90342 64.053 0 1 0
1726 15 15 0 -16.3172 -4.6961 62.8137 0 1 0
1727 15 16 0.46 -15.7845 -5.6762 61.9405 0 1 0
1592 15 16 0.46 -9.36383 -5.60201 62.2275 -1 0 0
2266 15 15 0 -5.60275 -4.71588 69.3908 -1 0 -1
1691 15 16 0.46 -3.91495 -3.97515 63.1174 0 1 1
1690 15 15 0 -3.38393 -3.88534 64.4286 0 1 1
750 15 17 -0.46 0.795488 -3.90658 66.5616 -1 1 1
748 15 15 0 1.55989 -3.43959 65.4632 -1 1 1
2432 15 16 0.46 -0.224806 -4.4994 67.902 0 0 1
1692 15 17 -0.46 -3.32401 -2.862 65.4079 0 1 1
5313 15 17 -0.46 -0.0640263 0.201626 62.9589 0 0 1
749 15 16 0.46 1.63431 -4.12175 64.2229 -1 1 1
2450 15 16 0.46 0.532688 0.985181 64.5053 0 0 1
1476 15 17 -0.46 1.80327 -4.98528 62.6627 -1 -1 1
2267 15 16 0.46 -4.19073 -4.78893 69.2876 -1 0 -1
2433 15 17 -0.46 -2.423 -4.88173 69.1155 0 0 1
2431 15 15 0 -1.01207 -4.94966 68.9919 0 0 1
4145 15 16 0.46 -3.15728 -1.5926 66.6612 0 1 -1
4146 15 17 -0.46 -2.13602 -0.477334 68.6933 0 1 -1
4144 15 15 0 -3.0821 -0.571456 67.6418 0 1 -1
3676 15 15 0 6.75472 -2.38188 65.3037 -1 1 0
3678 15 17 -0.46 8.09498 -1.92733 65.2534 -1 1 0
3677 15 16 0.46 6.37567 -3.72596 65.5445 -1 1 0
6820 15 15 0 4.46293 0.975789 68.5857 0 0 1
1440 15 17 -0.46 5.76336 -5.39878 65.8927 -1 0 1
6822 15 17 -0.46 4.42422 -0.39274 68.9564 0 0 1
6869 15 16 0.46 4.27786 -2.06798 69.4489 -1 0 0
1789 15 15 0 4.67311 1.17259 62.1812 -1 0 1
5017 15 15 0 9.4222 -5.63289 62.3987 0 0 1
2158 15 15 0 10.3559 -5.22912 67.4699 0 0 0
2160 15 17 -0.46 9.95528 -4.11589 68.2489 0 0 0
3209 15 16 0.46 9.81821 -1.31693 65.2004 -1 1 0
3208 15 15 0 11.1037 -0.722574 65.2203 -1 1 0
2638 15 15 0 13.9644 -5.51106 64.64 -1 1 0
2640 15 17 -0.46 12.8462 -5.41532 65.5071 -1 1 0
2159 15 16 0.46 11.4867 -5.31056 66.6181 0 0 0
3210 15 17 -0.46 10.7029 0.437876 65.9226 -1 1 0
2639 15 16 0.46 15.0667 -4.62758 64.5186 -1 1 0
695 15 16 0.46 15.9338 -1.96753 68.6729 -1 0 1
694 15 15 0 14.7436 -2.73863 68.6521 -1 0 1
4148 15 16 0.46 14.9522 -5.91451 69.0739 0 0 0
696 15 17 -0.46 14.8568 -4.13831 68.8444 -1 0 1
5102 15 16 0.46 9.4248 -2.77405 69.3212 0 0 0
2598 15 17 -0.46 -40.6492 1.28703 67.6472 1 0 0
1747 15 15 0 -43.2606 5.80129 63.5668 0 0 0
3869 15 16 0.46 -44.1948 5.39608 69.0748 0 0 1
1748 15 16 0.46 -42.358 6.13481 64.6096 0 0 0
3868 15 15 0 -44.4385 4.34701 68.151 0 0 1
3870 15 17 -0.46 -44.6182 2.94687 68.2759 0 0 1
5391 15 17 -0.46 -41.2971 6.5164 65.9271 1 0 1
5389 15 15 0 -40.3651 7.0009 66.8808 1 0 1
1749 15 17 -0.46 -43.1248 4.78858 62.583 0 0 0
1701 15 17 -0.46 -46.9247 7.88359 65.5045 0 0 1
6770 15 16 0.46 -45.6074 2.82063 63.7186 0 0 0
6769 15 15 0 -46.625 1.92956 64.0933 0 0 0
5390 15 16 0.46 -40.1756 8.16945 66.1017 1 0 1
2596 15 15 0 -40.1639 1.5657 68.9501 1 0 0
5729 15 16 0.46 -34.3813 2.13737 64.3223 0 1 0
4074 15 17 -0.46 -37.6623 1.6934 62.381 0 0 1
1679 15 16 0.46 -37.5613 2.49164 63.9635 -1 0 1
1678 15 15 0 -37.2219 3.05036 65.2205 -1 0 1
1680 15 17 -0.46 -35.888 2.68851 64.9019 -1 0 1
1347 15 17 -0.46 -34.7875 5.21562 69.0706 0 0 1
1346 15 16 0.46 -36.465 7.05902 69.4771 0 0 1
5291 15 16 0.46 -36.6545 7.29891 63.6378 1 0 0
5290 15 15 0 -35.7232 7.79886 64.5839 1 0 0
5292 15 17 -0.46 -34.7478 8.20986 65.5274 1 0 0
4691 15 16 0.46 -33.2911 4.56779 68.5995 0 0 1
6957 15 17 -0.46 -37.8139 6.69054 62.4937 0 0 1
1345 15 15 0 -36.0738 5.6963 69.432 0 0 1
5728 15 15 0 -33.1346 1.64816 63.8564 0 1 0
6888 15 17 -0.46 -27.9403 1.40442 66.5111 0 1 1
3417 15 17 -0.46 -30.5804 7.53334 63.5682 1 0 0
3416 15 16 0.46 -32.0532 5.89868 62.4578 1 0 0
6886 15 15 0 -28.4815 2.51362 65.812 0 1 1
6887 15 16 0.46 -29.5886 3.02898 66.5343 0 1 1
4692 15 17 -0.46 -30.9212 3.63871 67.4553 0 0 1
4690 15 15 0 -32.0065 4.06475 68.2636 0 0 1
2779 15 15 0 -28.2197 7.5037 67.7821 1 0 1
3415 15 15 0 -31.1828 6.24956 63.5207 1 0 0
4807 15 15 0 -26.1922 6.24729 62.9209 1 0 0
2780 15 16 0.46 -29.5787 7.89735 67.7194 1 0 1
1301 15 16 0.46 -23.5392 2.1301 62.6701 0 1 1
4809 15 17 -0.46 -25.2208 7.09391 63.5141 1 0 0
4289 15 16 0.46 -24.0347 8.10264 64.2586 0 0 1
3408 15 17 -0.46 -25.1002 3.41747 68.8762 1 0 0
3406 15 15 0 -23.9938 3.26823 68.0027 1 0 0
3407 15 16 0.46 -23.2625 2.16964 68.5227 1 0 0
1269 15 17 -0.46 -22.4364 3.48145 62.2703 -1 1 0
2975 15 16 0.46 -19.2409 7.01066 67.1717 -1 0 1
2974 15 15 0 -19.4556 5.74104 66.5764 -1 0 1
2976 15 17 -0.46 -19.5141 4.36771 66.2273 -1 0 1
3898 15 15 0 -19.6704 1.268 65.4554 0 0 1
3899 15 16 0.46 -19.5865 2.63449 65.8244 0 0 1
1267 15 15 0 -21.5705 4.54759 61.9191 -1 1 0
2451 15 17 -0.46 2.05749 1.45779 66.5586 0 0 1
2449 15 15 0 0.955833 1.64415 65.686 0 0 1
6821 15 16 0.46 3.39387 1.23876 67.6922 0 0 1
1790 15 16 0.46 4.7279 2.31726 63.0162 -1 0 1
3124 15 15 0 4.87514 4.85197 64.9554 0 0 0
3126 15 17 -0.46 4.82058 3.70636 64.1214 0 0 0
3125 15 16 0.46 4.86102 5.21063 66.3264 0 0 0
5097 15 17 -0.46 4.84707 5.74935 68.0244 0 1 0
5096 15 16 0.46 4.81786 7.6628 68.7705 0 1 0
5095 15 15 0 4.82234 6.3509 69.3078 0 1 0
3427 15 15 0 8.70733 8.32151 64.3511 -1 0 1
2314 15 15 0 9.15006 3.46687 62.5832 -1 0 0
3810 15 17 -0.46 9.1295 3.36444 65.8287 0 0 1
2315 15 16 0.46 9.11098 3.46389 63.9983 -1 0 0
3428 15 16 0.46 9.12309 8.30301 65.7083 -1 0 1
3808 15 15 0 9.26958 3.09324 67.2112 0 0 1
3809 15 16 0.46 9.96899 1.92858 66.8181 0 0 1
2767 15 15 0 10.0245 8.22862 68.6843 -1 -1 0
2769 15 17 -0.46 9.60244 8.2655 67.3292 -1 -1 0
1700 15 16 0.46 15.1665 7.13403 66.7152 -1 0 1
1699 15 15 0 15.4796 6.99648 65.3387 -1 0 1
1177 15 15 0 14.2443 2.59486 68.6244 -1 -1 0
1215 15 17 -0.46 15.0146 7.43801 68.4328 0 0 1
1179 15 17 -0.46 13.3524 3.17306 69.5602 -1 -1 0
4081 15 15 0 -44.6975 10.06 66.4112 0 1 0
4083 15 17 -0.46 -43.6596 10.7064 67.1292 0 1 0
4082 15 16 0.46 -45.6844 9.12409 66.0185 0 1 0
536 15 16 0.46 -42.3422 11.4955 67.9958 0 0 0
535 15 15 0 -41.2892 12.1503 68.6846 0 0 0
1274 15 16 0.46 -45.2915 14.43 68.3461 1 0 0
1273 15 15 0 -45.1814 15.3164 67.2477 1 0 0
537 15 17 -0.46 -40.0542 11.5092 68.9622 0 0 0
5808 15 17 -0.46 -40.0529 9.507 64.9497 1 0 1
6480 15 17 -0.46 -36.9697 8.7075 69.5439 0 1 0
5024 15 16 0.46 -33.5322 8.73663 66.6845 0 0 1
5806 15 15 0 -39.9586 10.5958 64.0473 1 0 1
2223 15 17 -0.46 -35.7784 14.2361 68.0462 0 0 1
2221 15 15 0 -35.6896 14.9251 69.2837 0 0 1
6479 15 16 0.46 -38.5383 10.7476 69.3182 0 1 0
364 15 15 0 -36.0587 12.7083 65.3237 0 1 0
5807 15 16 0.46 -38.7681 11.2865 64.3875 1 0 1
366 15 17 -0.46 -37.2742 12.1065 64.9124 0 1 0
365 15 16 0.46 -35.9463 13.4053 66.555 0 1 0
5815 15 15 0 -39.9259 15.8688 64.9178 1 0 0
920 15 16 0.46 -33.6615 15.0855 61.9198 1 1 1
5023 15 15 0 -32.5611 9.17867 67.6191 0 0 1
5025 15 17 -0.46 -31.2688 8.60109 67.6551 0 0 1
2781 15 17 -0.46 -27.7249 8.81081 68.0188 1 0 1
871 15 15 0 -29.3605 10.4065 63.6986 1 0 -1
872 15 16 0.46 -29.9169 9.10179 63.6626 1 0 -1
3965 15 16 0.46 -27.2172 10.4517 68.3187 -1 0 1
3694 15 15 0 -31.0714 13.8664 66.1115 0 0 0
3696 15 17 -0.46 -31.238 15.2624 66.307 0 0 0
3695 15 16 0.46 -30.5099 12.8169 65.3378 0 0 0
873 15 17 -0.46 -29.897 11.4824 64.4536 1 0 -1
6111 15 17 -0.46 -26.0249 13.1327 62.4185 -1 0 1
3964 15 15 0 -26.9017 11.8184 68.5262 -1 0 1
6125 15 16 0.46 -20.0556 10.666 68.4528 0 0 1
4288 15 15 0 -23.0222 8.92165 64.8206 0 0 1
4290 15 17 -0.46 -22.0088 9.82233 64.406 0 0 1
3966 15 17 -0.46 -25.534 12.1771 68.418 -1 0 1
1332 15 17 -0.46 -21.3268 12.0404 68.28 0 0 1
6110 15 16 0.46 -24.3278 14.256 63.8432 -1 0 1
1330 15 15 0 -22.4738 12.8642 68.1995 0 0 1
1331 15 16 0.46 -23.8251 12.4558 68.3321 0 0 1
6109 15 15 0 -25.3119 13.2558 63.6368 -1 0 1
5994 15 17 -0.46 -23.1316 15.4736 64.1611 1 -1 1
5525 15 16 0.46 -20.7087 10.9964 64.095 -1 0 1
5526 15 17 -0.46 -19.1285 12.8238 64.6895 -1 0 1
5524 15 15 0 -19.6775 11.909 63.7565 -1 0 1
6126 15 17 -0.46 -18.9249 8.63884 67.833 0 0 1
1758 15 17 -0.46 -22.1957 8.93848 69.5692 -1 1 0
6124 15 15 0 -18.8508 9.92065 68.4359 0 0 1
5790 15 17 -0.46 -18.1353 14.6659 68.3049 -1 -1 0
5788 15 15 0 -18.0034 14.8604 66.9074 -1 -1 0
5789 15 16 0.46 -18.5375 13.9492 65.9622 -1 -1 0
1266 15 17 -0.46 -13.5676 15.5503 68.1244 1 -1 0
2812 15 15 0 -14.4197 10.6016 62.3967 0 0 1
2813 15 16 0.46 -14.0927 11.7073 63.2203 0 0 1
2620 15 15 0 -13.3801 14.209 65.1443 -1 1 1
2621 15 16 0.46 -13.4476 14.7441 66.4542 -1 1 1
2622 15 17 -0.46 -13.7276 13.107 64.3248 -1 1 1
5246 15 16 0.46 -5.97555 15.4297 64.1784 0 0 1
3374 15 16 0.46 -5.83877 15.2812 69.0924 0 0 1
6916 15 15 0 -8.84829 14.8609 62.8926 -1 0 1
6918 15 17 -0.46 -7.61306 15.1523 63.5217 -1 0 1
6917 15 16 0.46 -8.47213 13.8089 62.0197 -1 0 1
5245 15 15 0 -4.60342 15.6603 64.4431 0 0 1
5247 15 17 -0.46 -4.48064 15.9463 63.061 0 0 1
2606 15 16 0.46 -2.51585 12.0279 69.2948 0 0 1
5189 15 16 0.46 -0.146448 15.272 63.1915 -1 0 0
4599 15 17 -0.46 -0.0498839 15.8016 65.0332 0 0 0
2607 15 17 -0.46 -4.53276 13.9792 69.0463 0 0 1
2605 15 15 0 -3.53759 12.971 69.021 0 0 1
5652 15 17 -0.46 -1.21122 10.792 69.5877 0 0 0
629 15 16 0.46 4.73372 11.6826 66.5347 0 0 1
6698 15 16 0.46 4.30765 15.6021 64.2156 0 0 1
3429 15 17 -0.46 8.47359 9.42198 63.4881 -1 0 1
6697 15 15 0 4.56976 14.5333 65.1096 0 0 1
6699 15 17 -0.46 4.63809 13.2662 65.7436 0 0 1
628 15 15 0 4.82647 10.4143 67.1622 0 0 1
630 15 17 -0.46 4.80794 9.1994 67.8922 0 0 1
6602 15 16 0.46 8.23969 10.7322 62.3449 -1 0 1
7046 15 16 0.46 9.09088 15.4809 64.1739 -1 0 0
3158 15 16 0.46 8.95144 12.9733 67.5783 -1 1 0
3159 15 17 -0.46 9.25962 14.1836 65.3142 -1 1 0
1383 15 17 -0.46 8.42393 12.7831 69.1963 0 0 1
3157 15 15 0 9.40567 13.1213 66.2422 -1 1 0
498 15 17 -0.46 13.4609 11.3871 64.4907 1 0 0
497 15 16 0.46 12.9009 9.87688 62.4878 1 0 0
496 15 15 0 13.1647 11.1141 63.1303 1 0 0
902 15 16 0.46 13.8083 11.7612 66.181 0 0 0
901 15 15 0 14.066 12.0485 67.5455 0 0 0
903 15 17 -0.46 15.0419 12.1248 68.5691 0 0 0
4724 15 16 0.46 14.6966 15.7135 63.0759 -1 0 1
1275 15 17 -0.46 -46.3491 16.0052 67.6562 1 0 0
3787 15 15 0 -45.4001 20.4956 67.9727 0 0 0
3788 15 16 0.46 -45.1669 19.713 69.1309 0 0 0
3789 15 17 -0.46 -46.3016 21.5862 67.907 0 0 0
6309 15 17 -0.46 -41.9817 20.15 64.9197 0 0 0
6307 15 15 0 -40.8841 20.904 65.4036 0 0 0
4949 15 16 0.46 -43.238 19.1774 64.107 0 0 0
4950 15 17 -0.46 -44.1024 18.4681 62.0003 0 0 0
4948 15 15 0 -44.2054 18.4087 63.4137 0 0 0
5847 15 17 -0.46 -45.6417 23.0771 62.9178 0 -1 1
3842 15 16 0.46 -40.3179 16.7767 67.9665 0 0 0
5817 15 17 -0.46 -40.2498 16.1792 66.2611 1 0 0
3841 15 15 0 -40.4397 17.2771 69.2856 0 0 0
6308 15 16 0.46 -40.0184 20.5932 64.3283 0 0 0
6819 15 17 -0.46 -39.0246 20.0774 62.7576 1 0 1
5816 15 16 0.46 -38.8239 16.7408 65.09 1 0 0
6984 15 17 -0.46 -37.5128 17.9135 65.6914 0 0 1
6982 15 15 0 -36.4846 18.7589 66.1729 0 0 1
6983 15 16 0.46 -35.7902 19.9953 66.1408 0 0 1
919 15 15 0 -34.0584 16.3369 62.4535 1 1 1
921 15 17 -0.46 -33.6179 17.6735 62.2654 1 1 1
4170 15 17 -0.46 -34.9055 21.5171 66.1579 0 -1 0
4256 15 16 0.46 -33.1222 19.2846 62.0755 -1 0 0
4168 15 15 0 -34.1874 22.7399 66.1185 0 -1 0
554 15 16 0.46 -28.1086 17.0053 63.906 0 0 0
553 15 15 0 -28.7487 16.9974 62.6416 0 0 0
2631 15 17 -0.46 -31.2351 19.3444 67.7548 -1 0 0
2629 15 15 0 -31.6211 18.3146 66.8584 -1 0 0
2630 15 16 0.46 -31.4236 16.9241 66.652 -1 0 0
6779 15 16 0.46 -27.1284 21.6006 65.1271 0 0 1
6780 15 17 -0.46 -28.3788 21.6072 63.272 0 0 1
6778 15 15 0 -28.4727 21.6753 64.6839 0 0 1
6168 15 17 -0.46 -27.3339 17.0538 65.5404 -1 0 1
6166 15 15 0 -26.69 17.035 66.8032 -1 0 1
6167 15 16 0.46 -26.4809 17.8016 67.9776 -1 0 1
1244 15 16 0.46 -30.7481 20.6409 68.7981 0 0 1
4941 15 17 -0.46 -26.2276 18.6735 69.5013 1 -1 1
1245 15 17 -0.46 -29.2085 22.4726 69.4777 0 0 1
5992 15 15 0 -22.1584 16.4809 64.3859 1 -1 1
2830 15 15 0 -21.5998 17.9663 68.6987 0 0 1
2832 15 17 -0.46 -21.7928 17.5229 67.3653 0 0 1
6189 15 17 -0.46 -23.4208 20.6195 62.7004 -1 0 0
1360 15 15 0 -24.0288 21.368 65.7406 0 0 0
1362 15 17 -0.46 -25.4327 21.4803 65.5775 0 0 0
1361 15 16 0.46 -23.7092 21.0604 64.3938 0 0 0
5993 15 16 0.46 -21.9901 16.939 65.7174 1 -1 1
1264 15 15 0 -13.6495 16.1314 69.4135 1 -1 0
374 15 16 0.46 -17.7045 21.0049 66.4502 0 0 1
373 15 15 0 -18.7449 21.8725 66.8696 0 0 1
3804 15 17 -0.46 -16.3462 19.9954 65.9468 0 0 0
3802 15 15 0 -15.2706 19.1461 65.5842 0 0 0
3803 15 16 0.46 -13.8552 19.0694 65.6135 0 0 0
4044 15 17 -0.46 -12.0819 18.8826 65.5935 0 1 0
375 15 17 -0.46 -18.1966 22.7453 67.8423 0 0 1
3373 15 15 0 -6.86386 16.2581 69.0461 0 0 1
5494 15 15 0 -6.96023 19.9905 63.1494 0 0 1