LAMMPS data file via write_data, version 27 Oct 2021, timestep = 1000

7236 atoms
32 atom types
7366 bonds
138 bond types
2655 angles
66 angle types
10 dihedrals
10 dihedral types
51 impropers
17 improper types

-47.1069542017885 16.38891518451802 xlo xhi
-28.275943194048573 45.43784181970262 ylo yhi
61.8805044951155 123.61119912196789 zlo zhi

Masses

1 72
2 72
3 72
4 72
5 72
6 72
7 72
8 72
9 72
10 72
11 45
12 45
13 45
14 45
15 24
16 24
17 24
18 72
19 72
20 72
21 45
22 45
23 45
24 45
25 45
26 45
27 45
28 45
29 45
30 45
31 45
32 45

Atoms # full

980 15 16 0.46 -44.97422783346952 -24.766433839907496 68.08959938722828 0 0 1
979 15 15 0 -44.80521133610669 -25.08103461479734 66.71801247902009 0 0 1
4856 15 16 0.46 -40.65193130481382 -20.912303125135267 64.32021715037834 0 1 0
4464 15 17 -0.46 -41.505503379402406 -26.309187994988925 63.3145096526181 1 1 0
4175 15 16 0.46 -40.63677459308927 -24.99346420588628 64.15884443286993 0 1 1
4462 15 15 0 -42.239283173780215 -27.30576059128818 62.62407039795685 1 1 0
981 15 17 -0.46 -46.02794549664138 -25.17190086262625 66.00463729476866 0 0 1
4648 15 15 0 -45.0554860641141 -22.138341983618528 62.530083446914816 0 1 0
4650 15 17 -0.46 -46.36136803745603 -21.589845759186385 62.48154494875044 0 1 0
4176 15 17 -0.46 -40.210560512989616 -22.62273897626472 64.57694946991465 0 1 1
2391 15 17 -0.46 -39.1334514458669 -21.712032960077885 69.34745128007833 0 0 1
4174 15 15 0 -39.91322498654096 -23.982209911975087 64.83963776680893 0 1 1
4878 15 17 -0.46 -34.70940993075518 -23.681602329504408 65.7165381148983 0 1 0
4876 15 15 0 -34.58426762018801 -23.030363549845458 66.97040843079692 0 1 0
3535 15 15 0 -35.063820611333504 -25.089052852120943 62.87959998848375 1 1 1
3536 15 16 0.46 -34.97453855432629 -24.472599770439743 64.15393386939226 1 1 1
4877 15 16 0.46 -34.83769135973125 -23.647963887706396 68.22090329434685 0 1 0
4939 15 15 0 -36.85280793812696 -27.616272689567992 67.02522964076476 1 0 1
768 15 17 -0.46 -39.87874756795714 -28.150159384763445 67.43242410526666 1 0 1
4940 15 16 0.46 -38.22405675428597 -27.877535321010832 67.27956803844761 1 0 1
3537 15 17 -0.46 -35.96160820004971 -25.641836414998327 61.93016797743735 1 1 1
7144 15 15 0 -31.68454648293873 -27.305425911144006 66.05811127819348 1 0 -1
7145 15 16 0.46 -31.024276612846688 -26.83959968385509 64.89275707011916 1 0 -1
4822 15 15 0 -29.325325122458302 -22.59856581731573 66.09845258642682 0 1 0
4818 15 17 -0.46 -30.26902497175971 -26.27685826338349 63.4566795047391 0 1 1
4816 15 15 0 -29.598150446474683 -25.91194762738756 62.261572230928046 0 1 1
386 15 16 0.46 -26.456092279723272 -21.39455186300265 66.36881726069458 0 0 0
4823 15 16 0.46 -29.810189483749582 -22.69645980241698 67.42809515817963 0 1 0
4824 15 17 -0.46 -28.0270105186401 -22.031084113278247 66.17646938072235 0 1 0
7163 15 16 0.46 -26.6101483927341 -26.36895912723959 67.57202681949263 1 0 0
7162 15 15 0 -27.3577628326645 -26.604684264230766 68.75376645752884 1 0 0
5499 15 17 -0.46 -30.36504896610648 -22.790118761307646 69.06386884701095 -1 -1 1
7164 15 17 -0.46 -27.17885093948644 -27.781237530207356 69.52538486032054 1 0 0
5010 15 17 -0.46 -25.72569068725855 -25.97462604525119 66.121597116576 0 1 0
5008 15 15 0 -24.955999510381314 -25.774576613820606 64.94801374468481 0 1 0
5009 15 16 0.46 -23.646283475432075 -26.307517551232756 65.06197012988878 0 1 0
4191 15 17 -0.46 -20.227775727287646 -22.41316101241449 65.4627606571086 1 0 0
4189 15 15 0 -21.223900657096543 -21.966521348264674 64.55874720070173 1 0 0
2510 15 16 0.46 -19.07062243221063 -22.97918596457817 66.6298388747248 0 0 0
2511 15 17 -0.46 -19.42444518396245 -23.880203328646086 68.37772747707129 0 0 0
4190 15 16 0.46 -22.444825420156583 -21.57347763247757 65.16442039069847 1 0 0
3959 15 16 0.46 -21.084917173598864 -24.41676343691291 69.13732100979276 0 0 1
2028 15 17 -0.46 -22.01803289385307 -26.913901072381318 65.14503499199276 0 0 0
387 15 17 -0.46 -23.963603926185858 -21.194429264740005 65.8992762819542 0 0 0
2026 15 15 0 -20.7103930389942 -27.45089507752309 65.26300601476143 0 0 0
3958 15 15 0 -22.398685567283657 -24.70825028226715 69.56947063970834 0 0 1
2509 15 15 0 -18.26284491594097 -23.4565738270045 67.69225482903755 0 0 0
2181 15 17 -0.46 -13.529914615897853 -25.572985597313977 68.06891655185257 -1 0 0
2180 15 16 0.46 -14.264359928779722 -25.082871207338886 65.7035859232395 -1 0 0
2179 15 15 0 -13.302449605139284 -25.130349482451667 66.74233740248498 -1 0 0
6075 15 17 -0.46 -15.45132531321217 -24.93770710122641 64.32558571391077 -1 1 0
6073 15 15 0 -16.3894964048116 -24.863021443530315 63.2666587400996 -1 1 0
6074 15 16 0.46 -16.237062684985258 -23.886750087315885 62.246320918340636 -1 1 0
7026 15 17 -0.46 -9.380135484197977 -27.733138886523875 65.63697435657788 0 1 1
7024 15 15 0 -9.14896333987803 -27.375929911696318 64.28902016486182 0 1 1
5180 15 16 0.46 -9.619801001792817 -28.04807090150345 67.5255932280787 0 1 0
7025 15 16 0.46 -10.278978879274426 -27.747411494492162 63.51859384642095 0 1 1
5631 15 17 -0.46 -7.9372925679280275 -21.133571647992955 64.20781411759899 -2 1 0
5629 15 15 0 -8.824050418116219 -22.22943888600918 64.05907858353063 -2 1 0
5803 15 15 0 -7.872478457118347 -24.177745005308434 68.76547036623177 1 1 -1
5805 15 17 -0.46 -8.45870818361366 -25.444907742200044 68.61816783612048 1 1 -1
5804 15 16 0.46 -6.728182319542426 -24.04606914666424 67.94268594672076 1 1 -1
2844 15 17 -0.46 -5.231456133097182 -23.71706549868451 66.99648368327526 -1 1 1
5630 15 16 0.46 -8.111727320671294 -23.004580656099428 63.11033204993455 -2 1 0
1557 15 17 -0.46 -11.711243084161342 -28.173196285262765 62.596008815215356 -1 1 1
5282 15 16 0.46 -4.637134027389353 -28.064201907602136 68.20931708401513 -1 0 0
6907 15 15 0 -0.02586718950089631 -26.521300128692317 67.07735579631246 0 1 0
2843 15 16 0.46 -2.999155240059455 -22.96615301497791 67.01024393457784 -1 1 1
2842 15 15 0 -4.052859182838517 -23.514067609718026 66.23812086656399 -1 1 1
2767 15 15 0 -2.4262318579495177 -27.1142473867856 63.140472895666434 -1 0 0
6909 15 17 -0.46 -0.7617100262125702 -26.693116277618067 65.87806467937068 0 1 0
2768 15 16 0.46 -1.7096388089637788 -26.96917981710466 64.35445193141817 -1 0 0
6420 15 17 -0.46 -1.6404045894567496 -22.280794844383497 68.00267669002822 0 1 1
6908 15 16 0.46 1.1287601817876491 -25.759909738408144 67.38645770934579 0 1 0
6418 15 15 0 -0.6223499530610851 -21.69635064265515 68.7959873666289 0 1 1
5585 15 16 0.46 -0.2572714826609183 -22.20699297054761 63.061043668558185 -1 0 -1
3489 15 17 -0.46 -1.5726979820608415 -21.542010188063113 62.11286435772216 0 0 1
5586 15 17 -0.46 1.1120374532491892 -23.839038055107082 62.7628377129501 -1 0 -1
5584 15 15 0 0.8278309848684035 -22.83562471431902 63.722046613094676 -1 0 -1
2769 15 17 -0.46 -2.742429223991019 -27.73694942375361 61.90507370068521 -1 0 0
4938 15 17 -0.46 2.6228277859897946 -24.84901637042747 67.88679603690079 0 1 -1
4936 15 15 0 3.773764022183748 -24.086028318815348 68.20581011994024 0 1 -1
4937 15 16 0.46 4.880168153608477 -24.195140348335332 69.08533191867042 0 1 -1
6335 15 16 0.46 15.939097423151603 -25.232922233093124 65.172869523414 0 1 0
4085 15 16 0.46 12.083629202491814 -24.93050838927221 66.35021133369938 0 1 0
4084 15 15 0 11.010039557797692 -24.802384433436785 67.26731807607395 0 1 0
4086 15 17 -0.46 11.656353563429759 -24.920425820835717 68.52414803605619 0 1 0
6336 15 17 -0.46 13.506076713977166 -25.160161624017146 65.33391675942545 0 1 0
6334 15 15 0 14.671895585846052 -25.301393708688742 64.5396740554086 0 1 0
5320 15 15 0 15.428894945714733 -21.021736618601498 67.37445645232532 0 1 1
5321 15 16 0.46 -46.67518248190963 -20.85548426176749 67.59756968567123 1 1 1
1324 15 15 0 -43.59618734441483 -20.462421510830712 68.08912382187907 -1 1 -1
1325 15 16 0.46 -42.8953572478133 -19.247760285166216 67.88805222408799 -1 1 -1
1326 15 17 -0.46 -44.985368189323914 -20.672172411672108 67.88413057107755 -1 1 -1
3094 15 15 0 -41.518773417444706 -16.286476603511584 68.03753296411477 0 1 1
3096 15 17 -0.46 -42.11796899121628 -17.565965537656776 68.10255530197202 0 1 1
5686 15 15 0 -45.64504462158826 -17.183929003772107 64.68315190652339 0 0 0
4855 15 15 0 -41.00293074805533 -19.56628412774335 64.05587000506185 0 1 0
5687 15 16 0.46 -45.809670404519025 -16.97489978574197 66.07360093404287 0 0 0
4857 15 17 -0.46 -41.87705825103148 -19.323632865814425 65.1274154030407 0 1 0
3095 15 16 0.46 -42.3293058742576 -15.241777724149784 67.53304568706496 0 1 1
1116 15 17 -0.46 -43.31409752633306 -13.799334561388468 66.92923097601847 1 0 1
5688 15 17 -0.46 -46.608418913060724 -16.48520038702049 63.912543186682264 0 0 0
4785 15 17 -0.46 -46.22946112373248 -16.611628773948894 67.83422824428531 0 0 1
4783 15 15 0 -46.50530302803992 -16.33416251325309 69.19471265392053 0 0 1
2389 15 15 0 -38.6006556555 -20.44424982347154 68.9981886802461 0 0 1
6958 15 15 0 -39.38437607345433 -14.774060223700163 63.53013187612356 1 0 1
2390 15 16 0.46 -37.960744279351644 -19.865168884615006 67.87316205815243 0 0 1
4806 15 17 -0.46 -37.049232273469066 -19.087041971437888 66.61281903852816 -1 1 0
6960 15 17 -0.46 -38.38567274391297 -14.634173660682999 62.53230406386399 1 0 1
3442 15 15 0 -36.1535188691522 -14.558181398239693 68.18847020930119 1 1 0
3444 15 17 -0.46 -36.21519452701081 -15.676250665228352 67.31963585611624 1 1 0
4805 15 16 0.46 -36.31647682630281 -17.116113545381648 66.29300775900633 -1 1 0
4804 15 15 0 -36.36974836979531 -18.35489346820527 65.60645782027761 -1 1 0
3443 15 16 0.46 -35.08701449203362 -14.704760617554484 69.11068019838073 1 1 0
2804 15 16 0.46 -33.70859534661709 -15.330037073566722 62.218346299999496 1 1 1
1126 15 15 0 -32.47772991352622 -20.807394431516627 62.45243715765688 0 1 1
2803 15 15 0 -32.69225730188595 -15.87074863269845 63.047087836271515 1 1 1
2805 15 17 -0.46 -32.427054472597 -16.543217800001297 64.26572566395369 1 1 1
1128 15 17 -0.46 -31.260756830051193 -20.11248977434716 62.65475114675072 0 1 1
1976 15 16 0.46 -29.674121712671393 -19.241262396390674 62.74443295868164 1 0 0
603 15 17 -0.46 -30.24863092890412 -17.468886085025236 67.11631018715056 0 0 0
601 15 15 0 -31.545097334162936 -18.029213523667234 66.98689419022857 0 0 0
602 15 16 0.46 -31.98861850050781 -17.412084465581852 65.79112535448309 0 0 0
5947 15 15 0 -27.415317681446986 -16.0935818270322 67.32532971638967 0 1 0
5948 15 16 0.46 -28.688931037421344 -16.714001019811104 67.2641587795968 0 1 0
5949 15 17 -0.46 -26.576702743364066 -16.182958231424955 68.46695505803793 0 1 0
1977 15 17 -0.46 -27.009861167166065 -18.387868515315034 62.77829419309931 1 0 0
1975 15 15 0 -28.408925369274762 -18.60747469140002 62.80392344552939 1 0 0
385 15 15 0 -25.166152196059713 -20.83618897256315 66.56102047361942 0 0 0
5303 15 16 0.46 -25.239543704930952 -17.96875018993722 62.73550068015349 -1 0 0
522 15 17 -0.46 -21.595585531729366 -18.001038610241853 67.86390607346551 -1 0 1
520 15 15 0 -21.77587177862333 -17.100613351855625 66.78000278436804 -1 0 1
2555 15 16 0.46 -21.30929233819922 -19.018155143959966 69.1847916418452 0 0 0
5302 15 15 0 -23.859040224095114 -17.65179514276831 62.71174443445845 -1 0 0
5304 15 17 -0.46 -23.221041976609673 -17.4489258915791 63.96080023877518 -1 0 0
521 15 16 0.46 -22.375195854865698 -17.22378355881299 65.5021805681934 -1 0 1
4593 15 17 -0.46 -19.57847457391474 -13.910628861751318 66.25102805406566 -1 1 0
5903 15 16 0.46 -19.44126190764466 -15.30959145252421 62.347421936805155 1 0 0
4719 15 17 -0.46 -14.511486466383108 -19.726624422918935 65.73713795812385 0 1 1
4717 15 15 0 -13.64743122227342 -20.2513069088101 64.7471940071439 0 1 1
1748 15 16 0.46 -15.64788251525429 -18.94334384627928 66.98952866242489 0 0 0
1747 15 15 0 -16.658212941815197 -18.27458660748634 67.71975389301838 0 0 0
6342 15 17 -0.46 -18.704325345728186 -16.800697559617493 62.881446363965466 0 0 0
6340 15 15 0 -18.15106579129895 -18.022297951755327 63.34223230200893 0 0 0
6341 15 16 0.46 -17.80143745474931 -18.039836923425884 64.7140560235656 0 0 0
1749 15 17 -0.46 -17.245335082137878 -18.164595555058128 66.43690496531094 0 0 0
4718 15 16 0.46 -12.627750284231283 -19.29949753377065 64.49797998416705 0 1 1
6747 15 17 -0.46 -11.358617460163693 -18.054091964486197 64.14875440772228 -1 1 1
3290 15 16 0.46 -6.741541066541318 -19.87893592704786 64.40039199122873 0 1 0
5207 15 16 0.46 -11.323468553221367 -20.13047363719937 69.04976273832285 0 1 0
5206 15 15 0 -10.236853641122684 -19.42570398444563 68.47295589198667 0 1 0
5208 15 17 -0.46 -10.506463259046969 -18.034940416961486 68.50035066579167 0 1 0
824 15 16 0.46 -10.855227538231825 -16.25889989823884 68.4305790780524 1 0 0
2297 15 16 0.46 -5.3011932963514585 -19.321410227870246 67.66678934463243 -1 1 0
6745 15 15 0 -10.332199914053138 -17.0876235171405 64.0072004749595 -1 1 1
3289 15 15 0 -5.721817869469473 -18.911005383491652 64.58231207022507 0 1 0
3291 15 17 -0.46 -5.441539863580233 -19.10712980087701 65.95914755854005 0 1 0
327 18 18 -1 -6.2906528916572 -14.548922567306603 67.15322266894114 -1 1 1
823 15 15 0 -11.265852330213145 -14.906215776042442 68.52493476857036 1 0 0
6746 15 16 0.46 -9.560823495291766 -17.02011389451489 62.81985237476109 -1 1 1
2296 15 15 0 -5.175810157423171 -19.563629202526453 69.059370558309 -1 1 0
825 15 17 -0.46 -11.130371116447495 -13.62279552466054 67.93419914137888 1 0 0
5756 15 16 0.46 0.937531420844071 -14.324567214584453 65.75989164851723 0 0 0
6489 15 17 -0.46 -0.7102697460271135 -15.397092944927616 66.00359769989323 -1 0 1
6487 15 15 0 -1.7846480765253243 -16.20856960256906 66.43077355876211 -1 0 1
6488 15 16 0.46 -3.041693862698554 -15.600682604481095 66.61769575506234 -1 0 1
1169 15 16 0.46 1.6669459798899913 -18.000209960988162 63.74830540762567 0 1 1
2922 15 17 -0.46 1.4701841994903717 -14.07703801689158 68.68875367338367 0 0 0
1170 15 17 -0.46 -0.07230038544507339 -17.199269500141316 62.05254731173098 0 1 1
1168 15 15 0 1.1716288430707906 -17.757976724389845 62.44310637555997 0 1 1
5755 15 15 0 1.9326805601383987 -13.594579199454829 65.06810480105403 0 0 0
1993 15 15 0 7.187784582863174 -20.247677098940873 67.56916861413734 -1 0 0
1995 15 17 -0.46 5.86807465222538 -19.78670731913269 67.33412497028228 -1 0 0
795 15 17 -0.46 2.428735245910806 -18.43096410379726 65.36969551230908 0 1 1
793 15 15 0 2.9054400080492915 -18.690616954307977 66.6782287221436 0 1 1
794 15 16 0.46 4.210507746818128 -19.16548733660045 66.95977008018475 0 1 1
2468 15 16 0.46 4.862831556636003 -14.738429219831579 64.86426020678624 1 1 0
2467 15 15 0 6.168099910412743 -15.289065449928682 64.78359154354484 1 1 0
1207 15 15 0 8.763912220361947 -15.809565051604292 69.38957336603765 0 1 -1
2469 15 17 -0.46 7.179068398307092 -14.870014626746253 63.88262245199259 1 1 0
1994 15 16 0.46 8.388999666851896 -20.289058226235827 68.32204746924548 -1 0 0
1208 15 16 0.46 9.137540256949208 -14.757609377683053 68.51504461748706 0 1 -1
3287 15 16 0.46 8.501145011963503 -14.389366730213155 62.81106752549846 -1 1 2
6800 15 16 0.46 6.788480281121841 -20.144445695314012 62.77357611699803 0 1 1
6799 15 15 0 5.482234229878779 -20.687526005638517 62.66027046968351 0 1 1
6906 15 17 -0.46 8.410156368000623 -19.504384999230634 62.89164874235793 -1 0 1
5757 15 17 -0.46 3.245331270476232 -14.106516689149302 64.89690728591917 0 0 0
1160 15 16 0.46 15.484190776360979 -20.820921766900405 62.53209487063073 0 0 1
1159 15 15 0 14.19486166898679 -20.237017000913394 62.47404059659258 0 0 1
1161 15 17 -0.46 12.848157714253615 -19.845396728770563 62.654320830608576 0 0 1
6904 15 15 0 9.699570428956394 -18.927364776885653 63.03111750773128 -1 0 1
6905 15 16 0.46 11.089205450049121 -19.195797361845578 63.06896330196425 -1 0 1
5695 15 15 0 12.81838113211401 -17.234914248189302 66.44901762084359 -1 1 1
5697 15 17 -0.46 11.98383883468934 -17.501506495529807 65.35156524413914 -1 1 1
7182 15 17 -0.46 9.898204578897737 -20.431657225455243 69.25394148237467 0 1 0
5322 15 17 -0.46 14.624763706430251 -19.885378995822734 67.1199726146643 0 1 1
5696 15 16 0.46 13.566479238891167 -18.41532873356284 66.66738663696725 -1 1 1
4784 15 16 0.46 15.890567095512514 -15.480385599183686 69.46280927443041 -1 0 1
6377 15 16 0.46 15.677725741773468 -15.564680953031893 62.99045527316914 0 1 0
6376 15 15 0 14.753678134781383 -14.742774593974078 62.29748110049492 0 1 0
395 15 16 0.46 -43.31945830238602 -7.81137659349771 62.92843897210772 0 0 1
396 15 17 -0.46 -44.12190201093704 -10.041630993869346 62.785035353713695 0 0 1
394 15 15 0 -44.36116356261849 -8.722734868597977 63.23977046377898 0 0 1
4479 15 17 -0.46 -45.5739679309549 -7.227979143049877 67.47607166172767 0 1 1
5626 15 15 0 -42.591936433623474 -8.004198717829675 68.17454654759683 0 -1 0
1114 15 15 0 -44.15063522944796 -12.717559033073623 66.56249204084962 1 0 1
1115 15 16 0.46 -44.69469591583092 -12.21156685402703 67.77022036694305 1 0 1
5627 15 16 0.46 -43.94128380860176 -7.679244456053351 67.88002804218608 0 -1 0
5628 15 17 -0.46 -41.920975989435114 -9.152171635321906 68.66550019135776 0 -1 0
4031 15 16 0.46 -41.06761729260226 -10.571885735322676 69.33224619588165 1 1 0
3297 15 17 -0.46 -45.33188669720273 -11.614362983704803 69.28636584330067 0 0 0
3066 15 17 -0.46 -42.05437382433219 -6.717501081008279 62.5095376548998 0 0 1
5717 15 16 0.46 -43.807543564182104 -11.742864458730843 62.17223840168252 1 1 -1
4477 15 15 0 -46.9286884480123 -6.932328238855595 67.17475631007298 0 1 1
6959 15 16 0.46 -39.63084988235296 -13.440116783516977 63.94455442966903 1 0 1
1020 15 17 -0.46 -39.8234757215205 -11.79086690391516 64.3590282342524 0 0 0
1018 15 15 0 -39.8840994230255 -10.41839743585759 64.71339587279084 0 0 0
1019 15 16 0.46 -38.632081925392264 -10.08666527529246 65.29440488162187 0 0 0
2541 15 17 -0.46 -37.12352949875893 -9.778882397208791 65.99507890300144 0 -1 0
2539 15 15 0 -35.832788435448535 -9.525173906346728 66.52807440796977 0 -1 0
2540 15 16 0.46 -35.1900674760104 -9.689636114105665 67.77975705308256 0 -1 0
2982 15 17 -0.46 -34.316110458098684 -9.953341507553978 69.30855546046404 0 0 1
1347 15 17 -0.46 -36.00922702393084 -6.514170212745825 62.53278662954397 0 0 1
2981 15 16 0.46 -32.74536671928584 -11.07268379033503 69.4830271406697 0 0 1
2158 15 15 0 -27.9407182884877 -13.456083637366019 63.01576853587708 0 0 0
4249 15 15 0 -32.57897911439219 -10.891045121859484 62.60418998299274 2 0 0
2160 15 17 -0.46 -26.6730096530924 -13.351047896118683 63.63768736467738 0 0 0
4251 15 17 -0.46 -32.25157230254984 -11.452655518785837 63.86359376417478 2 0 0
3118 15 15 0 -30.875048533630878 -7.466650230979158 65.78330831037078 0 1 0
3120 15 17 -0.46 -30.652221045042026 -7.04642917041968 64.44868685991487 0 1 0
4521 15 17 -0.46 -32.05225378613439 -11.916230633814878 67.9629798080183 0 0 0
4520 15 16 0.46 -31.825644056626274 -12.059414162469393 65.51462907004965 0 0 0
1023 15 17 -0.46 -26.973254636429864 -7.271811831757247 63.161131242381785 0 0 0
4519 15 15 0 -31.534010191916757 -12.554073482082831 66.81060217298437 0 0 0
5035 15 15 0 -26.94035095621111 -10.569145809423155 67.43671793101771 0 1 1
5037 15 17 -0.46 -27.36327876251058 -11.15351451778087 68.65966660220177 0 1 1
3119 15 16 0.46 -31.790128215405474 -6.788882241733319 66.62771549398263 0 1 0
4580 15 16 0.46 -30.193921899626623 -6.613695585031521 62.80739813968447 0 0 1
1021 15 15 0 -25.691673593124044 -7.705008895508235 63.53507730186277 0 0 0
5036 15 16 0.46 -25.915741958172767 -11.22650826713394 66.70858119707242 0 1 1
6359 15 16 0.46 -25.030529847142038 -13.1818281422948 64.35071800183309 -1 1 0
1022 15 16 0.46 -24.979440821332062 -6.671468545654599 64.18532905454524 0 0 0
6360 15 17 -0.46 -24.704773420643296 -12.092988409844304 65.85607179505895 -1 1 0
6358 15 15 0 -23.83986455189348 -12.88072749743243 65.05392057554546 -1 1 0
627 15 17 -0.46 -22.197202102621237 -9.55434862847056 68.35544643224586 0 1 0
625 15 15 0 -21.630083432415258 -8.902144008034272 67.2313643570251 0 1 0
626 15 16 0.46 -21.0905704694158 -7.739981934869678 67.8331771497891 0 1 0
7200 15 17 -0.46 -20.400107534578986 -6.300738568629982 68.69305345019794 0 1 1
4591 15 15 0 -18.490917365621037 -13.245107810619215 66.83552898880274 -1 1 0
4592 15 16 0.46 -18.629507908294105 -12.52069008043651 68.04074523856129 -1 1 0
6529 15 15 0 -18.52561967205364 -9.14924292882996 63.18701734526639 -1 1 0
6531 15 17 -0.46 -17.74007398228403 -8.895389169525986 64.33825565419049 -1 1 0
3575 15 16 0.46 -16.795846169123593 -8.722101464985297 65.90323298800928 0 1 0
3574 15 15 0 -16.0890535457212 -8.582778496675155 67.12321846822245 0 1 0
3576 15 17 -0.46 -16.736678886709548 -9.085965321773473 68.2785867207502 0 1 0
6697 15 15 0 -13.495964677034722 -8.747135193027281 62.746756878566984 0 0 1
6699 15 17 -0.46 -13.333199371617544 -7.556626925374879 63.500138612449256 0 0 1
4751 15 16 0.46 -7.283719543267806 -13.13819290194486 64.26657380474074 0 0 1
4750 15 15 0 -7.699131371160821 -12.538284316009724 63.05927832569887 0 0 1
4752 15 17 -0.46 -8.944167458207467 -12.745137099517521 62.41323620432568 0 0 1
3810 15 17 -0.46 -6.1967608910153205 -9.801715193988729 68.18576071912487 0 0 1
1224 15 17 -0.46 -10.443328922380255 -9.559322002744768 67.30321808786107 -1 0 -1
1222 15 15 0 -10.718009903542402 -10.78587852426896 66.64554141067427 -1 0 -1
1223 15 16 0.46 -10.854201544511914 -12.070600061543706 67.23409866874596 -1 0 -1
4703 15 16 0.46 -10.08341678824554 -8.040323435689956 68.09238793098875 0 1 0
4702 15 15 0 -9.802639690123318 -6.814230261009596 68.74785970556493 0 1 0
5733 15 17 -0.46 -8.8092430824792 -7.6936297048304665 62.3758078792512 -1 0 1
5731 15 15 0 -8.647685735941133 -7.067289273673283 63.639824178968205 -1 0 1
3808 15 15 0 -5.504986996418809 -9.44950438992986 67.00121115928441 0 0 1
5732 15 16 0.46 -7.655973727931052 -6.233793975597497 64.21990599805441 -1 0 1
3809 15 16 0.46 -4.644073596353076 -10.27251024042518 66.2330836675769 0 0 1
1134 15 17 -0.46 -3.555558964538893 -11.045156912112262 65.06342695454582 -1 0 1
7168 15 15 0 -1.3397977372015255 -6.53264683197257 65.40508210516334 -1 0 0
1132 15 15 0 -2.702961500204241 -11.626952590251694 64.09284273351271 -1 0 1
1133 15 16 0.46 -3.055334278602958 -10.605264049173938 63.175531993559616 -1 0 1
6151 15 15 0 0.48095595262621266 -9.73957230908628 68.05422082837273 0 0 0
6153 15 17 -0.46 -0.076563907683339 -8.712623299360757 67.2469886906544 0 0 0
7169 15 16 0.46 -0.7841261313101691 -7.529419238374108 66.25002541125708 -1 0 0
1158 15 17 -0.46 -3.6452780321239726 -9.272956405979286 62.198178098913566 0 1 0
6152 15 16 0.46 0.9200961446897111 -9.806713012532772 69.39992004409295 0 0 0
4078 15 15 0 5.3581493386194 -11.686665444185317 68.85683720964465 -1 0 1
4080 15 17 -0.46 5.269929467527182 -10.956095961676809 67.64502908629898 -1 0 1
1436 15 16 0.46 5.0885597441679264 -10.12554259324059 66.07908194510607 -1 0 1
1437 15 17 -0.46 6.377896775253932 -9.154909174078911 64.38664069957389 -1 0 1
1435 15 15 0 5.064992985329265 -9.414582446244527 64.85256161298587 -1 0 1
6226 15 15 0 8.398399813768075 -7.5985860775058685 68.54445260761645 -1 1 0
3464 15 16 0.46 8.078755050496273 -8.87635356517345 63.89600395471703 -1 0 0
6227 15 16 0.46 8.114145057262887 -6.609218870970728 67.56956194240259 -1 1 0
6378 15 17 -0.46 14.639922681460632 -13.49933778501227 62.97137348174312 0 1 0
2937 15 17 -0.46 9.553608198432126 -13.365625110672742 67.49653983303818 0 0 0
3463 15 15 0 9.470133858628477 -8.826815607854076 63.63393483200058 -1 0 0
2936 15 16 0.46 9.837728545597853 -11.231166461380518 65.72011912150873 0 0 0
2935 15 15 0 9.938014168155384 -12.29970968701258 66.64486432010136 0 0 0
3465 15 17 -0.46 9.716205908343621 -9.884293009610207 64.54470454986927 -1 0 0
2776 15 15 0 14.422735337114924 -10.799891041246108 64.57521822277904 -1 0 1
2778 15 17 -0.46 14.363189075975306 -9.610488144113273 63.80566596039537 -1 0 1
2777 15 16 0.46 14.498950936758055 -12.010249008694817 63.839213571732735 -1 0 1
4352 15 16 0.46 14.278859670484309 -8.154405781695868 62.82876717093832 -1 0 1
6228 15 17 -0.46 9.712648678870112 -8.03171159341495 68.8538158268884 -1 1 0
4351 15 15 0 14.258553342115732 -6.966905917660661 62.0534623804848 -1 0 1
5789 15 16 0.46 11.304284918573241 -8.653393300279419 69.3179276259346 -1 -1 0
4478 15 16 0.46 15.309930581421673 -6.319713914352563 66.94139966278115 -1 1 1
1554 15 17 -0.46 -45.339054723182535 -3.552495924508521 64.16585252909209 1 0 0
1552 15 15 0 -46.41343305385365 -3.6003128916234366 63.24067841188222 1 0 0
6221 15 16 0.46 -43.97155204177763 -3.4120519349630904 65.24939094663014 1 0 0
6220 15 15 0 -42.90540599274442 -3.302349996408165 66.17869489326233 1 0 0
6222 15 17 -0.46 -41.61813729614429 -3.873993566858639 66.34328704923665 1 0 0
3064 15 15 0 -41.00639403629868 -5.807602539653605 62.21410082443449 0 0 1
401 15 16 0.46 -39.98072982658537 -4.515696179295218 66.52150481548887 0 0 0
6882 15 17 -0.46 -39.83757120244692 -1.0100891155578149 62.91599456980841 -1 0 0
400 15 15 0 -38.67435256275601 -5.045809969965465 66.6741864373458 0 0 0
6880 15 15 0 -38.65970108284937 -0.9771418671418455 63.70077170709239 -1 0 0
402 15 17 -0.46 -37.691353450407796 -5.139711104121707 65.65612991526577 0 0 0
6881 15 16 0.46 -37.77572852025648 -0.8447208059877104 64.8001983975344 -1 0 0
1346 15 16 0.46 -36.46091319988785 -5.329227452620997 64.44359146617876 0 0 1
1345 15 15 0 -35.530242000776134 -5.484894374509018 63.38437294560258 0 0 1
5056 15 15 0 -33.78658027521396 -5.292183098583763 68.55757541324708 2 1 1
4158 15 17 -0.46 -36.60215786951043 -0.6878559342207838 66.16549933641623 1 0 1
4157 15 16 0.46 -35.45102424841888 0.09318201891601156 68.4405646462143 1 0 1
4156 15 15 0 -35.66924075648049 -0.60941640234241 67.22962157353464 1 0 1
5058 15 17 -0.46 -32.90263439928197 -5.974506467179687 67.68300508088817 2 1 1
5006 15 16 0.46 -32.72071917024856 -1.5658792039695466 63.023133402788076 0 0 0
5005 15 15 0 -31.91417558848291 -2.0979891433694853 64.06085271562749 0 0 0
5007 15 17 -0.46 -31.0586804447688 -1.1071208787913847 64.60844317941435 0 0 0
5291 15 16 0.46 -29.23441249950677 -4.677113423821727 68.93335202679545 1 0 0
5739 15 17 -0.46 -26.07685514869671 -1.6289257988845185 63.54456310759464 0 1 1
5290 15 15 0 -29.092178366829792 -3.451982444610389 68.23963498431698 1 0 0
5292 15 17 -0.46 -29.32565087260967 -2.2611228091705793 68.97552632346267 1 0 0
5737 15 15 0 -26.974841464995595 -2.5765923243790096 62.9936219343417 0 1 1
2123 15 16 0.46 -30.020486842947868 0.11865004793797149 65.25105979938195 1 1 1
2122 15 15 0 -29.196729322767066 1.1542689307303244 65.76366190044236 1 1 1
2007 15 17 -0.46 -23.85879074293646 -5.433188132239818 65.0131364697563 0 0 0
4033 15 15 0 -24.139380402542333 0.6680375517033675 64.70482531814189 0 1 0
4034 15 16 0.46 -24.937540416033777 -0.4281705439565909 64.29464478533022 0 1 0
2005 15 15 0 -23.018650046313642 -4.364288312153535 65.40367809907126 0 0 0
2006 15 16 0.46 -22.49749759105751 -4.239728775493171 64.0903310405881 0 0 0
525 15 17 -0.46 -24.75340787613955 -2.9463885781230896 69.36414952032789 0 0 0
523 15 15 0 -24.577429136686472 -1.544607166742552 69.46422838023699 0 0 0
7199 15 16 0.46 -19.162864831284864 -4.8354074739912125 67.99699083246469 0 1 1
7198 15 15 0 -19.79731599356729 -5.13647949608272 69.22822479958322 0 1 1
6829 15 15 0 -19.323973324960356 -0.19388620954489102 63.1249557130749 0 0 1
6353 15 16 0.46 -24.835270232369165 -4.723911143098223 69.52707563976792 0 1 1
6495 15 17 -0.46 -21.954020055830775 -4.206718673059088 62.473416706566326 1 1 0
6830 15 16 0.46 -18.72200414600797 -0.0975738487028604 64.4039987809272 0 0 1
5042 15 16 0.46 -13.075453601663057 -6.097511329382891 64.4383090612457 -1 1 -1
6670 15 15 0 -17.931581634167408 -4.470163363583275 65.08574669487038 0 0 0
6672 15 17 -0.46 -18.480958379483273 -4.612510730652037 66.38447257107975 0 0 0
6671 15 16 0.46 -17.5260921762143 -4.520129929490727 63.726797440559984 0 0 0
5461 15 15 0 -17.557747588961075 0.028606208553385606 67.38590500683763 0 0 1
5462 15 16 0.46 -18.54905738744726 0.5710242117612033 68.22708524831657 0 0 1
5043 15 17 -0.46 -13.407636205896006 -4.647898264265094 66.50003796943113 -1 1 -1
5041 15 15 0 -12.90373314441625 -4.9141057017263705 65.20143281227661 -1 1 -1
5463 15 17 -0.46 -18.072383889654514 -0.021840472295369007 66.06667408037207 0 0 1
4935 15 17 -0.46 -16.93429597581879 -4.54014939514354 62.103039252797444 -1 0 0
2675 15 16 0.46 -13.987119201722866 -4.293612337690116 68.1165521558355 1 1 0
4921 15 15 0 -14.218361578685201 -0.4620707784344648 63.31238733589709 -1 0 0
4922 15 16 0.46 -13.366022537527089 -0.2921687759683163 64.43389247985085 -1 0 0
3429 15 17 -0.46 -12.307188748829082 -0.03400339913278275 65.77328491765383 -1 0 1
2674 15 15 0 -14.472153330735091 -3.981972410219228 69.41261059582492 1 1 0
4923 15 17 -0.46 -13.712450758030775 -0.2734312836151864 62.000127741685205 -1 0 0
5325 15 17 -0.46 -6.444360146320287 -5.286433447202607 64.95552870849002 1 1 0
3427 15 15 0 -11.41892412264052 0.1730390445736118 66.86005595570441 -1 0 1
4057 15 15 0 -8.974638119080932 -1.71919933603782 62.600139464895925 0 -1 1
4058 15 16 0.46 -9.16301026436841 -0.31343374048547956 62.582542015685675 0 -1 1
5323 15 15 0 -5.4300278585045465 -4.48178622220007 65.53795420794796 1 1 0
1030 15 15 0 -5.607720080591653 0.6166841272730543 65.56495661938997 0 0 1
1032 15 17 -0.46 -5.397805123600889 0.8207829390605416 64.17747101172283 0 0 1
1031 15 16 0.46 -5.317664117610427 1.0737947583195788 66.8762640826291 0 0 1
5888 15 16 0.46 -5.119538630278552 0.9898393339582214 62.474123182906084 1 0 1
7170 15 17 -0.46 -2.596077143727286 -5.877971883103581 65.47558265063662 -1 0 0
5324 15 16 0.46 -4.143954269846997 -5.078780642821919 65.5004375855655 1 1 0
6181 15 15 0 -1.493906092430782 -1.9985671848189903 62.95093496922934 0 1 -1
6182 15 16 0.46 -0.47553849918106084 -1.6017497733810255 63.85186416731438 0 1 -1
3387 15 17 -0.46 0.7755218983313872 -1.2546221660936498 65.10076288218166 -1 0 1
3385 15 15 0 1.7289898568539093 -0.8119319738721403 66.05147612383503 -1 0 1