ITEM: TIMESTEP
0
ITEM: NUMBER OF ATOMS
7236
ITEM: BOX BOUNDS pp pp pp
-4.7106954201788497e+01 1.6388915184518019e+01
-2.8275943194048573e+01 4.5437841819702619e+01
6.1880504495115503e+01 1.2361119912196789e+02
ITEM: ATOMS id mol type q x y z ix iy iz
980 15 16 0.46 -44.9742 -24.7664 68.0896 0 0 1
979 15 15 0 -44.8052 -25.081 66.718 0 0 1
4856 15 16 0.46 -40.6519 -20.9123 64.3202 0 1 0
4464 15 17 -0.46 -41.5055 -26.3092 63.3145 1 1 0
4175 15 16 0.46 -40.6368 -24.9935 64.1588 0 1 1
4462 15 15 0 -42.2393 -27.3058 62.6241 1 1 0
981 15 17 -0.46 -46.0279 -25.1719 66.0046 0 0 1
4648 15 15 0 -45.0555 -22.1383 62.5301 0 1 0
4650 15 17 -0.46 -46.3614 -21.5898 62.4815 0 1 0
4176 15 17 -0.46 -40.2106 -22.6227 64.5769 0 1 1
2391 15 17 -0.46 -39.1335 -21.712 69.3475 0 0 1
4174 15 15 0 -39.9132 -23.9822 64.8396 0 1 1
4878 15 17 -0.46 -34.7094 -23.6816 65.7165 0 1 0
4876 15 15 0 -34.5843 -23.0304 66.9704 0 1 0
3535 15 15 0 -35.0638 -25.0891 62.8796 1 1 1
3536 15 16 0.46 -34.9745 -24.4726 64.1539 1 1 1
4877 15 16 0.46 -34.8377 -23.648 68.2209 0 1 0
4939 15 15 0 -36.8528 -27.6163 67.0252 1 0 1
768 15 17 -0.46 -39.8787 -28.1502 67.4324 1 0 1
4940 15 16 0.46 -38.2241 -27.8775 67.2796 1 0 1
3537 15 17 -0.46 -35.9616 -25.6418 61.9302 1 1 1
7144 15 15 0 -31.6845 -27.3054 66.0581 1 0 -1
7145 15 16 0.46 -31.0243 -26.8396 64.8928 1 0 -1
4822 15 15 0 -29.3253 -22.5986 66.0985 0 1 0
4818 15 17 -0.46 -30.269 -26.2769 63.4567 0 1 1
4816 15 15 0 -29.5982 -25.9119 62.2616 0 1 1
386 15 16 0.46 -26.4561 -21.3946 66.3688 0 0 0
4823 15 16 0.46 -29.8102 -22.6965 67.4281 0 1 0
4824 15 17 -0.46 -28.027 -22.0311 66.1765 0 1 0
7163 15 16 0.46 -26.6101 -26.369 67.572 1 0 0
7162 15 15 0 -27.3578 -26.6047 68.7538 1 0 0
5499 15 17 -0.46 -30.365 -22.7901 69.0639 -1 -1 1
7164 15 17 -0.46 -27.1789 -27.7812 69.5254 1 0 0
5010 15 17 -0.46 -25.7257 -25.9746 66.1216 0 1 0
5008 15 15 0 -24.956 -25.7746 64.948 0 1 0
5009 15 16 0.46 -23.6463 -26.3075 65.062 0 1 0
4191 15 17 -0.46 -20.2278 -22.4132 65.4628 1 0 0
4189 15 15 0 -21.2239 -21.9665 64.5587 1 0 0
2510 15 16 0.46 -19.0706 -22.9792 66.6298 0 0 0
2511 15 17 -0.46 -19.4244 -23.8802 68.3777 0 0 0
4190 15 16 0.46 -22.4448 -21.5735 65.1644 1 0 0
3959 15 16 0.46 -21.0849 -24.4168 69.1373 0 0 1
2028 15 17 -0.46 -22.018 -26.9139 65.145 0 0 0
387 15 17 -0.46 -23.9636 -21.1944 65.8993 0 0 0
2026 15 15 0 -20.7104 -27.4509 65.263 0 0 0
3958 15 15 0 -22.3987 -24.7083 69.5695 0 0 1
2509 15 15 0 -18.2628 -23.4566 67.6923 0 0 0
2181 15 17 -0.46 -13.5299 -25.573 68.0689 -1 0 0
2180 15 16 0.46 -14.2644 -25.0829 65.7036 -1 0 0
2179 15 15 0 -13.3024 -25.1303 66.7423 -1 0 0
6075 15 17 -0.46 -15.4513 -24.9377 64.3256 -1 1 0
6073 15 15 0 -16.3895 -24.863 63.2667 -1 1 0
6074 15 16 0.46 -16.2371 -23.8868 62.2463 -1 1 0
7026 15 17 -0.46 -9.38014 -27.7331 65.637 0 1 1
7024 15 15 0 -9.14896 -27.3759 64.289 0 1 1
5180 15 16 0.46 -9.6198 -28.0481 67.5256 0 1 0
7025 15 16 0.46 -10.279 -27.7474 63.5186 0 1 1
5631 15 17 -0.46 -7.93729 -21.1336 64.2078 -2 1 0
5629 15 15 0 -8.82405 -22.2294 64.0591 -2 1 0
5803 15 15 0 -7.87248 -24.1777 68.7655 1 1 -1
5805 15 17 -0.46 -8.45871 -25.4449 68.6182 1 1 -1
5804 15 16 0.46 -6.72818 -24.0461 67.9427 1 1 -1
2844 15 17 -0.46 -5.23146 -23.7171 66.9965 -1 1 1
5630 15 16 0.46 -8.11173 -23.0046 63.1103 -2 1 0
1557 15 17 -0.46 -11.7112 -28.1732 62.596 -1 1 1
5282 15 16 0.46 -4.63713 -28.0642 68.2093 -1 0 0
6907 15 15 0 -0.0258672 -26.5213 67.0774 0 1 0
2843 15 16 0.46 -2.99916 -22.9662 67.0102 -1 1 1
2842 15 15 0 -4.05286 -23.5141 66.2381 -1 1 1
2767 15 15 0 -2.42623 -27.1142 63.1405 -1 0 0
6909 15 17 -0.46 -0.76171 -26.6931 65.8781 0 1 0
2768 15 16 0.46 -1.70964 -26.9692 64.3545 -1 0 0
6420 15 17 -0.46 -1.6404 -22.2808 68.0027 0 1 1
6908 15 16 0.46 1.12876 -25.7599 67.3865 0 1 0
6418 15 15 0 -0.62235 -21.6964 68.796 0 1 1
5585 15 16 0.46 -0.257271 -22.207 63.061 -1 0 -1
3489 15 17 -0.46 -1.5727 -21.542 62.1129 0 0 1
5586 15 17 -0.46 1.11204 -23.839 62.7628 -1 0 -1
5584 15 15 0 0.827831 -22.8356 63.722 -1 0 -1
2769 15 17 -0.46 -2.74243 -27.7369 61.9051 -1 0 0
4938 15 17 -0.46 2.62283 -24.849 67.8868 0 1 -1
4936 15 15 0 3.77376 -24.086 68.2058 0 1 -1
4937 15 16 0.46 4.88017 -24.1951 69.0853 0 1 -1
6335 15 16 0.46 15.9391 -25.2329 65.1729 0 1 0
4085 15 16 0.46 12.0836 -24.9305 66.3502 0 1 0
4084 15 15 0 11.01 -24.8024 67.2673 0 1 0
4086 15 17 -0.46 11.6564 -24.9204 68.5241 0 1 0
6336 15 17 -0.46 13.5061 -25.1602 65.3339 0 1 0
6334 15 15 0 14.6719 -25.3014 64.5397 0 1 0
5320 15 15 0 15.4289 -21.0217 67.3745 0 1 1
5321 15 16 0.46 -46.6752 -20.8555 67.5976 1 1 1
1324 15 15 0 -43.5962 -20.4624 68.0891 -1 1 -1
1325 15 16 0.46 -42.8954 -19.2478 67.8881 -1 1 -1
1326 15 17 -0.46 -44.9854 -20.6722 67.8841 -1 1 -1
3094 15 15 0 -41.5188 -16.2865 68.0375 0 1 1
3096 15 17 -0.46 -42.118 -17.566 68.1026 0 1 1
5686 15 15 0 -45.645 -17.1839 64.6832 0 0 0
4855 15 15 0 -41.0029 -19.5663 64.0559 0 1 0
5687 15 16 0.46 -45.8097 -16.9749 66.0736 0 0 0
4857 15 17 -0.46 -41.8771 -19.3236 65.1274 0 1 0
3095 15 16 0.46 -42.3293 -15.2418 67.533 0 1 1
1116 15 17 -0.46 -43.3141 -13.7993 66.9292 1 0 1
5688 15 17 -0.46 -46.6084 -16.4852 63.9125 0 0 0
4785 15 17 -0.46 -46.2295 -16.6116 67.8342 0 0 1
4783 15 15 0 -46.5053 -16.3342 69.1947 0 0 1
2389 15 15 0 -38.6007 -20.4442 68.9982 0 0 1
6958 15 15 0 -39.3844 -14.7741 63.5301 1 0 1
2390 15 16 0.46 -37.9607 -19.8652 67.8732 0 0 1
4806 15 17 -0.46 -37.0492 -19.087 66.6128 -1 1 0
6960 15 17 -0.46 -38.3857 -14.6342 62.5323 1 0 1
3442 15 15 0 -36.1535 -14.5582 68.1885 1 1 0
3444 15 17 -0.46 -36.2152 -15.6763 67.3196 1 1 0
4805 15 16 0.46 -36.3165 -17.1161 66.293 -1 1 0
4804 15 15 0 -36.3697 -18.3549 65.6065 -1 1 0
3443 15 16 0.46 -35.087 -14.7048 69.1107 1 1 0
2804 15 16 0.46 -33.7086 -15.33 62.2183 1 1 1
1126 15 15 0 -32.4777 -20.8074 62.4524 0 1 1
2803 15 15 0 -32.6923 -15.8707 63.0471 1 1 1
2805 15 17 -0.46 -32.4271 -16.5432 64.2657 1 1 1
1128 15 17 -0.46 -31.2608 -20.1125 62.6548 0 1 1
1976 15 16 0.46 -29.6741 -19.2413 62.7444 1 0 0
603 15 17 -0.46 -30.2486 -17.4689 67.1163 0 0 0
601 15 15 0 -31.5451 -18.0292 66.9869 0 0 0
602 15 16 0.46 -31.9886 -17.4121 65.7911 0 0 0
5947 15 15 0 -27.4153 -16.0936 67.3253 0 1 0
5948 15 16 0.46 -28.6889 -16.714 67.2642 0 1 0
5949 15 17 -0.46 -26.5767 -16.183 68.467 0 1 0
1977 15 17 -0.46 -27.0099 -18.3879 62.7783 1 0 0
1975 15 15 0 -28.4089 -18.6075 62.8039 1 0 0
385 15 15 0 -25.1662 -20.8362 66.561 0 0 0
5303 15 16 0.46 -25.2395 -17.9688 62.7355 -1 0 0
522 15 17 -0.46 -21.5956 -18.001 67.8639 -1 0 1
520 15 15 0 -21.7759 -17.1006 66.78 -1 0 1
2555 15 16 0.46 -21.3093 -19.0182 69.1848 0 0 0
5302 15 15 0 -23.859 -17.6518 62.7117 -1 0 0
5304 15 17 -0.46 -23.221 -17.4489 63.9608 -1 0 0
521 15 16 0.46 -22.3752 -17.2238 65.5022 -1 0 1
4593 15 17 -0.46 -19.5785 -13.9106 66.251 -1 1 0
5903 15 16 0.46 -19.4413 -15.3096 62.3474 1 0 0
4719 15 17 -0.46 -14.5115 -19.7266 65.7371 0 1 1
4717 15 15 0 -13.6474 -20.2513 64.7472 0 1 1
1748 15 16 0.46 -15.6479 -18.9433 66.9895 0 0 0
1747 15 15 0 -16.6582 -18.2746 67.7198 0 0 0
6342 15 17 -0.46 -18.7043 -16.8007 62.8814 0 0 0
6340 15 15 0 -18.1511 -18.0223 63.3422 0 0 0
6341 15 16 0.46 -17.8014 -18.0398 64.7141 0 0 0
1749 15 17 -0.46 -17.2453 -18.1646 66.4369 0 0 0
4718 15 16 0.46 -12.6278 -19.2995 64.498 0 1 1
6747 15 17 -0.46 -11.3586 -18.0541 64.1488 -1 1 1
3290 15 16 0.46 -6.74154 -19.8789 64.4004 0 1 0
5207 15 16 0.46 -11.3235 -20.1305 69.0498 0 1 0
5206 15 15 0 -10.2369 -19.4257 68.473 0 1 0
5208 15 17 -0.46 -10.5065 -18.0349 68.5004 0 1 0
824 15 16 0.46 -10.8552 -16.2589 68.4306 1 0 0
2297 15 16 0.46 -5.30119 -19.3214 67.6668 -1 1 0
6745 15 15 0 -10.3322 -17.0876 64.0072 -1 1 1
3289 15 15 0 -5.72182 -18.911 64.5823 0 1 0
3291 15 17 -0.46 -5.44154 -19.1071 65.9591 0 1 0
327 18 18 -1 -6.29065 -14.5489 67.1532 -1 1 1
823 15 15 0 -11.2659 -14.9062 68.5249 1 0 0
6746 15 16 0.46 -9.56082 -17.0201 62.8199 -1 1 1
2296 15 15 0 -5.17581 -19.5636 69.0594 -1 1 0
825 15 17 -0.46 -11.1304 -13.6228 67.9342 1 0 0
5756 15 16 0.46 0.937531 -14.3246 65.7599 0 0 0
6489 15 17 -0.46 -0.71027 -15.3971 66.0036 -1 0 1
6487 15 15 0 -1.78465 -16.2086 66.4308 -1 0 1
6488 15 16 0.46 -3.04169 -15.6007 66.6177 -1 0 1
1169 15 16 0.46 1.66695 -18.0002 63.7483 0 1 1
2922 15 17 -0.46 1.47018 -14.077 68.6888 0 0 0
1170 15 17 -0.46 -0.0723004 -17.1993 62.0525 0 1 1
1168 15 15 0 1.17163 -17.758 62.4431 0 1 1
5755 15 15 0 1.93268 -13.5946 65.0681 0 0 0
1993 15 15 0 7.18778 -20.2477 67.5692 -1 0 0
1995 15 17 -0.46 5.86807 -19.7867 67.3341 -1 0 0
795 15 17 -0.46 2.42874 -18.431 65.3697 0 1 1
793 15 15 0 2.90544 -18.6906 66.6782 0 1 1
794 15 16 0.46 4.21051 -19.1655 66.9598 0 1 1
2468 15 16 0.46 4.86283 -14.7384 64.8643 1 1 0
2467 15 15 0 6.1681 -15.2891 64.7836 1 1 0
1207 15 15 0 8.76391 -15.8096 69.3896 0 1 -1
2469 15 17 -0.46 7.17907 -14.87 63.8826 1 1 0
1994 15 16 0.46 8.389 -20.2891 68.322 -1 0 0
1208 15 16 0.46 9.13754 -14.7576 68.515 0 1 -1
3287 15 16 0.46 8.50115 -14.3894 62.8111 -1 1 2
6800 15 16 0.46 6.78848 -20.1444 62.7736 0 1 1
6799 15 15 0 5.48223 -20.6875 62.6603 0 1 1
6906 15 17 -0.46 8.41016 -19.5044 62.8916 -1 0 1
5757 15 17 -0.46 3.24533 -14.1065 64.8969 0 0 0
1160 15 16 0.46 15.4842 -20.8209 62.5321 0 0 1
1159 15 15 0 14.1949 -20.237 62.474 0 0 1
1161 15 17 -0.46 12.8482 -19.8454 62.6543 0 0 1
6904 15 15 0 9.69957 -18.9274 63.0311 -1 0 1
6905 15 16 0.46 11.0892 -19.1958 63.069 -1 0 1
5695 15 15 0 12.8184 -17.2349 66.449 -1 1 1
5697 15 17 -0.46 11.9838 -17.5015 65.3516 -1 1 1
7182 15 17 -0.46 9.8982 -20.4317 69.2539 0 1 0
5322 15 17 -0.46 14.6248 -19.8854 67.12 0 1 1
5696 15 16 0.46 13.5665 -18.4153 66.6674 -1 1 1
4784 15 16 0.46 15.8906 -15.4804 69.4628 -1 0 1
6377 15 16 0.46 15.6777 -15.5647 62.9905 0 1 0
6376 15 15 0 14.7537 -14.7428 62.2975 0 1 0
395 15 16 0.46 -43.3195 -7.81138 62.9284 0 0 1
396 15 17 -0.46 -44.1219 -10.0416 62.785 0 0 1
394 15 15 0 -44.3612 -8.72273 63.2398 0 0 1
4479 15 17 -0.46 -45.574 -7.22798 67.4761 0 1 1
5626 15 15 0 -42.5919 -8.0042 68.1745 0 -1 0
1114 15 15 0 -44.1506 -12.7176 66.5625 1 0 1
1115 15 16 0.46 -44.6947 -12.2116 67.7702 1 0 1
5627 15 16 0.46 -43.9413 -7.67924 67.88 0 -1 0
5628 15 17 -0.46 -41.921 -9.15217 68.6655 0 -1 0
4031 15 16 0.46 -41.0676 -10.5719 69.3322 1 1 0
3297 15 17 -0.46 -45.3319 -11.6144 69.2864 0 0 0
3066 15 17 -0.46 -42.0544 -6.7175 62.5095 0 0 1
5717 15 16 0.46 -43.8075 -11.7429 62.1722 1 1 -1
4477 15 15 0 -46.9287 -6.93233 67.1748 0 1 1
6959 15 16 0.46 -39.6308 -13.4401 63.9446 1 0 1
1020 15 17 -0.46 -39.8235 -11.7909 64.359 0 0 0
1018 15 15 0 -39.8841 -10.4184 64.7134 0 0 0
1019 15 16 0.46 -38.6321 -10.0867 65.2944 0 0 0
2541 15 17 -0.46 -37.1235 -9.77888 65.9951 0 -1 0
2539 15 15 0 -35.8328 -9.52517 66.5281 0 -1 0
2540 15 16 0.46 -35.1901 -9.68964 67.7798 0 -1 0
2982 15 17 -0.46 -34.3161 -9.95334 69.3086 0 0 1
1347 15 17 -0.46 -36.0092 -6.51417 62.5328 0 0 1
2981 15 16 0.46 -32.7454 -11.0727 69.483 0 0 1
2158 15 15 0 -27.9407 -13.4561 63.0158 0 0 0
4249 15 15 0 -32.579 -10.891 62.6042 2 0 0
2160 15 17 -0.46 -26.673 -13.351 63.6377 0 0 0
4251 15 17 -0.46 -32.2516 -11.4527 63.8636 2 0 0
3118 15 15 0 -30.875 -7.46665 65.7833 0 1 0
3120 15 17 -0.46 -30.6522 -7.04643 64.4487 0 1 0
4521 15 17 -0.46 -32.0523 -11.9162 67.963 0 0 0
4520 15 16 0.46 -31.8256 -12.0594 65.5146 0 0 0
1023 15 17 -0.46 -26.9733 -7.27181 63.1611 0 0 0
4519 15 15 0 -31.534 -12.5541 66.8106 0 0 0
5035 15 15 0 -26.9404 -10.5691 67.4367 0 1 1
5037 15 17 -0.46 -27.3633 -11.1535 68.6597 0 1 1
3119 15 16 0.46 -31.7901 -6.78888 66.6277 0 1 0
4580 15 16 0.46 -30.1939 -6.6137 62.8074 0 0 1
1021 15 15 0 -25.6917 -7.70501 63.5351 0 0 0
5036 15 16 0.46 -25.9157 -11.2265 66.7086 0 1 1
6359 15 16 0.46 -25.0305 -13.1818 64.3507 -1 1 0
1022 15 16 0.46 -24.9794 -6.67147 64.1853 0 0 0
6360 15 17 -0.46 -24.7048 -12.093 65.8561 -1 1 0
6358 15 15 0 -23.8399 -12.8807 65.0539 -1 1 0
627 15 17 -0.46 -22.1972 -9.55435 68.3554 0 1 0
625 15 15 0 -21.6301 -8.90214 67.2314 0 1 0
626 15 16 0.46 -21.0906 -7.73998 67.8332 0 1 0
7200 15 17 -0.46 -20.4001 -6.30074 68.6931 0 1 1
4591 15 15 0 -18.4909 -13.2451 66.8355 -1 1 0
4592 15 16 0.46 -18.6295 -12.5207 68.0407 -1 1 0
6529 15 15 0 -18.5256 -9.14924 63.187 -1 1 0
6531 15 17 -0.46 -17.7401 -8.89539 64.3383 -1 1 0
3575 15 16 0.46 -16.7958 -8.7221 65.9032 0 1 0
3574 15 15 0 -16.0891 -8.58278 67.1232 0 1 0
3576 15 17 -0.46 -16.7367 -9.08597 68.2786 0 1 0
6697 15 15 0 -13.496 -8.74714 62.7468 0 0 1
6699 15 17 -0.46 -13.3332 -7.55663 63.5001 0 0 1
4751 15 16 0.46 -7.28372 -13.1382 64.2666 0 0 1
4750 15 15 0 -7.69913 -12.5383 63.0593 0 0 1
4752 15 17 -0.46 -8.94417 -12.7451 62.4132 0 0 1
3810 15 17 -0.46 -6.19676 -9.80172 68.1858 0 0 1
1224 15 17 -0.46 -10.4433 -9.55932 67.3032 -1 0 -1
1222 15 15 0 -10.718 -10.7859 66.6455 -1 0 -1
1223 15 16 0.46 -10.8542 -12.0706 67.2341 -1 0 -1
4703 15 16 0.46 -10.0834 -8.04032 68.0924 0 1 0
4702 15 15 0 -9.80264 -6.81423 68.7479 0 1 0
5733 15 17 -0.46 -8.80924 -7.69363 62.3758 -1 0 1
5731 15 15 0 -8.64769 -7.06729 63.6398 -1 0 1
3808 15 15 0 -5.50499 -9.4495 67.0012 0 0 1
5732 15 16 0.46 -7.65597 -6.23379 64.2199 -1 0 1
3809 15 16 0.46 -4.64407 -10.2725 66.2331 0 0 1
1134 15 17 -0.46 -3.55556 -11.0452 65.0634 -1 0 1
7168 15 15 0 -1.3398 -6.53265 65.4051 -1 0 0
1132 15 15 0 -2.70296 -11.627 64.0928 -1 0 1
1133 15 16 0.46 -3.05533 -10.6053 63.1755 -1 0 1
6151 15 15 0 0.480956 -9.73957 68.0542 0 0 0
6153 15 17 -0.46 -0.0765639 -8.71262 67.247 0 0 0
7169 15 16 0.46 -0.784126 -7.52942 66.25 -1 0 0
1158 15 17 -0.46 -3.64528 -9.27296 62.1982 0 1 0
6152 15 16 0.46 0.920096 -9.80671 69.3999 0 0 0
4078 15 15 0 5.35815 -11.6867 68.8568 -1 0 1
4080 15 17 -0.46 5.26993 -10.9561 67.645 -1 0 1
1436 15 16 0.46 5.08856 -10.1255 66.0791 -1 0 1
1437 15 17 -0.46 6.3779 -9.15491 64.3866 -1 0 1
1435 15 15 0 5.06499 -9.41458 64.8526 -1 0 1
6226 15 15 0 8.3984 -7.59859 68.5445 -1 1 0
3464 15 16 0.46 8.07876 -8.87635 63.896 -1 0 0
6227 15 16 0.46 8.11415 -6.60922 67.5696 -1 1 0
6378 15 17 -0.46 14.6399 -13.4993 62.9714 0 1 0
2937 15 17 -0.46 9.55361 -13.3656 67.4965 0 0 0
3463 15 15 0 9.47013 -8.82682 63.6339 -1 0 0
2936 15 16 0.46 9.83773 -11.2312 65.7201 0 0 0
2935 15 15 0 9.93801 -12.2997 66.6449 0 0 0
3465 15 17 -0.46 9.71621 -9.88429 64.5447 -1 0 0
2776 15 15 0 14.4227 -10.7999 64.5752 -1 0 1
2778 15 17 -0.46 14.3632 -9.61049 63.8057 -1 0 1
2777 15 16 0.46 14.499 -12.0102 63.8392 -1 0 1
4352 15 16 0.46 14.2789 -8.15441 62.8288 -1 0 1
6228 15 17 -0.46 9.71265 -8.03171 68.8538 -1 1 0
4351 15 15 0 14.2586 -6.96691 62.0535 -1 0 1
5789 15 16 0.46 11.3043 -8.65339 69.3179 -1 -1 0
4478 15 16 0.46 15.3099 -6.31971 66.9414 -1 1 1
1554 15 17 -0.46 -45.3391 -3.5525 64.1659 1 0 0
1552 15 15 0 -46.4134 -3.60031 63.2407 1 0 0
6221 15 16 0.46 -43.9716 -3.41205 65.2494 1 0 0
6220 15 15 0 -42.9054 -3.30235 66.1787 1 0 0
6222 15 17 -0.46 -41.6181 -3.87399 66.3433 1 0 0
3064 15 15 0 -41.0064 -5.8076 62.2141 0 0 1
401 15 16 0.46 -39.9807 -4.5157 66.5215 0 0 0
6882 15 17 -0.46 -39.8376 -1.01009 62.916 -1 0 0
400 15 15 0 -38.6744 -5.04581 66.6742 0 0 0
6880 15 15 0 -38.6597 -0.977142 63.7008 -1 0 0
402 15 17 -0.46 -37.6914 -5.13971 65.6561 0 0 0
6881 15 16 0.46 -37.7757 -0.844721 64.8002 -1 0 0
1346 15 16 0.46 -36.4609 -5.32923 64.4436 0 0 1
1345 15 15 0 -35.5302 -5.48489 63.3844 0 0 1
5056 15 15 0 -33.7866 -5.29218 68.5576 2 1 1
4158 15 17 -0.46 -36.6022 -0.687856 66.1655 1 0 1
4157 15 16 0.46 -35.451 0.093182 68.4406 1 0 1
4156 15 15 0 -35.6692 -0.609416 67.2296 1 0 1
5058 15 17 -0.46 -32.9026 -5.97451 67.683 2 1 1
5006 15 16 0.46 -32.7207 -1.56588 63.0231 0 0 0
5005 15 15 0 -31.9142 -2.09799 64.0609 0 0 0
5007 15 17 -0.46 -31.0587 -1.10712 64.6084 0 0 0
5291 15 16 0.46 -29.2344 -4.67711 68.9334 1 0 0
5739 15 17 -0.46 -26.0769 -1.62893 63.5446 0 1 1
5290 15 15 0 -29.0922 -3.45198 68.2396 1 0 0
5292 15 17 -0.46 -29.3257 -2.26112 68.9755 1 0 0
5737 15 15 0 -26.9748 -2.57659 62.9936 0 1 1
2123 15 16 0.46 -30.0205 0.11865 65.2511 1 1 1
2122 15 15 0 -29.1967 1.15427 65.7637 1 1 1
2007 15 17 -0.46 -23.8588 -5.43319 65.0131 0 0 0
4033 15 15 0 -24.1394 0.668038 64.7048 0 1 0
4034 15 16 0.46 -24.9375 -0.428171 64.2946 0 1 0
2005 15 15 0 -23.0187 -4.36429 65.4037 0 0 0
2006 15 16 0.46 -22.4975 -4.23973 64.0903 0 0 0
525 15 17 -0.46 -24.7534 -2.94639 69.3641 0 0 0
523 15 15 0 -24.5774 -1.54461 69.4642 0 0 0
7199 15 16 0.46 -19.1629 -4.83541 67.997 0 1 1
7198 15 15 0 -19.7973 -5.13648 69.2282 0 1 1
6829 15 15 0 -19.324 -0.193886 63.125 0 0 1
6353 15 16 0.46 -24.8353 -4.72391 69.5271 0 1 1
6495 15 17 -0.46 -21.954 -4.20672 62.4734 1 1 0
6830 15 16 0.46 -18.722 -0.0975738 64.404 0 0 1
5042 15 16 0.46 -13.0755 -6.09751 64.4383 -1 1 -1
6670 15 15 0 -17.9316 -4.47016 65.0857 0 0 0
6672 15 17 -0.46 -18.481 -4.61251 66.3845 0 0 0
6671 15 16 0.46 -17.5261 -4.52013 63.7268 0 0 0
5461 15 15 0 -17.5577 0.0286062 67.3859 0 0 1
5462 15 16 0.46 -18.5491 0.571024 68.2271 0 0 1
5043 15 17 -0.46 -13.4076 -4.6479 66.5 -1 1 -1
5041 15 15 0 -12.9037 -4.91411 65.2014 -1 1 -1
5463 15 17 -0.46 -18.0724 -0.0218405 66.0667 0 0 1
4935 15 17 -0.46 -16.9343 -4.54015 62.103 -1 0 0
2675 15 16 0.46 -13.9871 -4.29361 68.1166 1 1 0
4921 15 15 0 -14.2184 -0.462071 63.3124 -1 0 0
4922 15 16 0.46 -13.366 -0.292169 64.4339 -1 0 0
3429 15 17 -0.46 -12.3072 -0.0340034 65.7733 -1 0 1
2674 15 15 0 -14.4722 -3.98197 69.4126 1 1 0
4923 15 17 -0.46 -13.7125 -0.273431 62.0001 -1 0 0
5325 15 17 -0.46 -6.44436 -5.28643 64.9555 1 1 0
3427 15 15 0 -11.4189 0.173039 66.8601 -1 0 1
4057 15 15 0 -8.97464 -1.7192 62.6001 0 -1 1
4058 15 16 0.46 -9.16301 -0.313434 62.5825 0 -1 1
5323 15 15 0 -5.43003 -4.48179 65.538 1 1 0
1030 15 15 0 -5.60772 0.616684 65.565 0 0 1
1032 15 17 -0.46 -5.39781 0.820783 64.1775 0 0 1
1031 15 16 0.46 -5.31766 1.07379 66.8763 0 0 1
5888 15 16 0.46 -5.11954 0.989839 62.4741 1 0 1
7170 15 17 -0.46 -2.59608 -5.87797 65.4756 -1 0 0
5324 15 16 0.46 -4.14395 -5.07878 65.5004 1 1 0
6181 15 15 0 -1.49391 -1.99857 62.9509 0 1 -1
6182 15 16 0.46 -0.475538 -1.60175 63.8519 0 1 -1
3387 15 17 -0.46 0.775522 -1.25462 65.1008 -1 0 1
3385 15 15 0 1.72899 -0.811932 66.0515 -1 0 1
5040 15 17 -0.46 3.6774 -5.2934 62.2403 0 1 2
5038 15 15 0 2.96309 -4.81366 63.3692 0 1 2
5039 15 16 0.46 3.08937 -4.99815 64.7686 0 1 2
3386 15 16 0.46 2.85282 -0.688137 66.9081 -1 0 1
5608 15 15 0 5.29677 -0.547146 68.917 1 -1 1
5610 15 17 -0.46 4.18868 -0.706499 68.0463 1 -1 1
561 15 17 -0.46 3.14588 -5.24085 66.5602 0 0 0
559 15 15 0 3.26135 -5.42605 67.9605 0 0 0
560 15 16 0.46 2.60986 -4.58255 68.8955 0 0 0
2904 15 17 -0.46 7.82948 -5.36533 66.3484 0 1 0
2902 15 15 0 7.5225 -4.36329 65.3933 0 1 0
4422 15 17 -0.46 9.00409 -1.58478 65.1498 0 1 0
2903 15 16 0.46 8.14347 -3.08942 65.3406 0 1 0
1553 15 16 0.46 16.1983 -4.63852 62.8485 0 0 0
4420 15 15 0 9.71059 -0.365688 64.9881 0 1 0
4421 15 16 0.46 10.5039 -0.743983 63.8775 0 1 0
4353 15 17 -0.46 15.1359 -5.90682 62.4019 -1 0 1
6453 15 17 -0.46 13.7492 -5.53017 66.6876 0 1 -1
6451 15 15 0 12.4987 -4.90762 66.4428 0 1 -1
6452 15 16 0.46 11.7277 -4.28137 67.4539 0 1 -1
1980 15 17 -0.46 10.7275 -3.50979 68.7456 -1 0 1
1152 15 17 -0.46 11.3908 -1.42527 62.446 -1 0 0
5213 15 16 0.46 -26.0341 2.23825 62.6097 1 0 2
2124 15 17 -0.46 -29.1237 2.55963 65.5873 1 1 1
3479 15 16 0.46 -28.9822 4.30056 65.4264 1 0 1
3478 15 15 0 -28.8104 5.69601 65.2398 1 0 1
3480 15 17 -0.46 -27.4611 5.98128 64.903 1 0 1
4865 15 16 0.46 -25.8319 6.31499 64.5362 0 2 1
4035 15 17 -0.46 -24.8896 1.49994 63.8401 0 1 0
4864 15 15 0 -24.4589 6.50548 64.2322 0 2 1
4866 15 17 -0.46 -23.5261 7.24535 63.4613 0 2 1
1026 15 17 -0.46 -20.6152 3.98123 64.2333 0 0 0
1985 15 16 0.46 -21.1548 3.87791 62.4798 0 0 0
5764 15 15 0 -25.4322 3.59286 68.7636 -1 0 2
5765 15 16 0.46 -24.1864 2.9579 68.9275 -1 0 2
5766 15 17 -0.46 -25.412 5.00037 68.921 -1 0 2
1024 15 15 0 -20.2538 4.0929 65.5983 0 0 0
5264 15 16 0.46 -25.4927 6.802 69.0271 1 0 0
650 15 16 0.46 -22.343 8.12765 62.5312 0 0 0
1025 15 16 0.46 -19.2298 4.37478 66.5348 0 0 0
5263 15 15 0 -25.4959 8.21229 69.1567 1 0 0
908 15 16 0.46 -14.5247 4.32564 63.9204 0 1 0
907 15 15 0 -13.7133 4.5438 65.0624 0 1 0
909 15 17 -0.46 -14.5589 4.72817 66.1846 0 1 0
1929 15 17 -0.46 -17.8468 4.71512 67.7091 0 0 1
1927 15 15 0 -16.7265 5.03838 68.5119 0 0 1
1566 15 17 -0.46 -18.4767 8.28361 65.2865 -1 0 1
1564 15 15 0 -17.2922 8.0132 64.5546 -1 0 1
1928 15 16 0.46 -15.7142 4.95063 67.5239 0 0 1
630 15 17 -0.46 -15.5787 4.06424 62.5202 0 0 1
4072 15 15 0 -12.4012 8.36143 68.6478 0 0 1
1565 15 16 0.46 -16.742 8.47135 63.327 -1 0 1
3428 15 16 0.46 -10.7244 1.39653 67.041 -1 0 1
4020 15 17 -0.46 -9.85561 2.91508 67.337 1 0 0
1848 15 17 -0.46 -8.18048 7.13729 64.022 -1 0 0
7010 15 16 0.46 -6.64943 6.20944 64.047 -1 1 1
4018 15 15 0 -9.18517 4.15136 67.5179 1 0 0
4019 15 16 0.46 -8.68406 4.82744 68.6598 1 0 0
4621 15 15 0 -9.65972 2.80822 62.4599 -1 0 2
7009 15 15 0 -5.44545 5.46155 64.0512 -1 1 1
1846 15 15 0 -9.39498 7.86845 64.0094 -1 0 0
4623 15 17 -0.46 -9.47571 1.40191 62.4858 -1 0 2
2820 15 17 -0.46 -5.07784 1.5628 68.4987 -1 0 0
6027 15 17 -0.46 -4.67257 8.48259 67.7921 0 -1 0
6491 15 16 0.46 0.0171611 2.27089 69.0087 0 0 0
6643 15 15 0 -1.17241 3.38753 66.179 0 1 1
6644 15 16 0.46 -1.67658 4.39681 67.0365 0 1 1
6645 15 17 -0.46 -0.623793 2.80398 67.3455 0 1 1
7011 15 17 -0.46 -4.41975 5.45215 63.0718 -1 1 1
2634 15 17 -0.46 -2.24814 5.5658 68.2099 1 0 0
2632 15 15 0 -2.68018 6.49557 69.1881 1 0 0
2633 15 16 0.46 -3.57158 7.40441 68.5624 1 0 0
3230 15 16 0.46 3.9582 8.09136 63.1539 -1 0 0
3231 15 17 -0.46 3.96351 5.66469 63.5826 -1 0 0
3229 15 15 0 3.36555 6.8121 63.0105 -1 0 0
5806 15 15 0 5.28266 3.06316 65.0368 0 0 1
5808 15 17 -0.46 4.82248 3.20385 66.3544 0 0 1
5807 15 16 0.46 4.65625 4.18356 64.4427 0 0 1
6901 15 15 0 2.61603 6.05462 68.4215 -1 0 -1
5910 15 17 -0.46 5.48925 7.19767 67.5628 -1 -1 1
6902 15 16 0.46 3.91196 6.42413 67.9832 -1 0 -1
5908 15 15 0 6.7649 7.69055 67.1945 -1 -1 1
1739 15 16 0.46 -19.8522 8.6239 66.2606 0 0 0
2597 15 16 0.46 -25.8234 10.9253 62.5455 1 0 0
6213 15 17 -0.46 -25.512 11.1311 64.2879 0 0 0
6211 15 15 0 -25.2655 11.316 65.6716 0 0 0
5265 15 17 -0.46 -25.4237 9.12952 68.0797 1 0 0
6212 15 16 0.46 -25.3427 10.363 66.7168 0 0 0
1738 15 15 0 -20.867 9.05055 67.1543 0 0 0
3373 15 15 0 -21.6834 13.8055 61.9302 0 0 1
3375 15 17 -0.46 -20.4085 13.8184 62.5492 0 0 1
5288 15 16 0.46 -22.4413 15.0766 68.0082 0 0 1
5287 15 15 0 -21.4391 14.3224 67.3478 0 0 1
5289 15 17 -0.46 -21.0299 15.3478 66.4615 0 0 1
1740 15 17 -0.46 -19.8242 9.81945 67.7254 0 0 0
5837 15 16 0.46 -18.8057 13.7409 63.3325 0 0 1
5883 15 17 -0.46 -15.943 11.927 69.0907 0 -1 0
5881 15 15 0 -17.0576 11.2746 68.5057 0 -1 0
5882 15 16 0.46 -18.2944 10.6405 68.2359 0 -1 0
5836 15 15 0 -17.5297 13.7107 63.9497 0 0 1
5838 15 17 -0.46 -17.2957 14.4811 65.1139 0 0 1
5546 15 16 0.46 -16.9748 15.4437 66.7259 -1 0 0
5941 15 15 0 -13.2609 11.0907 65.0917 0 0 1
5943 15 17 -0.46 -12.9861 10.2087 66.169 0 0 1
5942 15 16 0.46 -12.9719 12.4654 65.2916 0 0 1
4065 15 17 -0.46 -12.5867 14.1224 65.5464 -1 0 0
4073 15 16 0.46 -12.6911 9.17457 67.5219 0 0 1
4063 15 15 0 -12.3129 15.5003 65.7435 -1 0 0
5190 15 17 -0.46 -16.1321 9.00063 61.9194 -1 0 0
1847 15 16 0.46 -9.75538 8.83545 63.0363 -1 0 0
6025 15 15 0 -5.55793 9.34237 67.0925 0 -1 0
6026 15 16 0.46 -6.63512 10.2454 67.29 0 -1 0
5652 15 17 -0.46 -7.91945 11.3496 67.4994 0 0 0
5650 15 15 0 -8.9708 12.286 67.6803 0 0 0
5651 15 16 0.46 -8.98939 13.2808 68.6875 0 0 0
6522 15 17 -0.46 -5.19162 15.1044 66.5076 -1 1 1
2502 15 17 -0.46 -0.426046 10.2147 64.8896 0 1 0
2484 15 17 -0.46 -3.11551 9.5335 62.7631 -1 0 0
1192 15 15 0 -0.109643 13.4269 64.6666 -1 0 -1
1193 15 16 0.46 -0.167952 12.0134 64.7273 -1 0 -1
1194 15 17 -0.46 -1.36752 13.7292 65.2505 -1 0 -1
2500 15 15 0 -0.852752 8.86501 64.9227 0 1 0
2501 15 16 0.46 -1.90507 9.09425 64.0023 0 1 0
2103 15 17 -0.46 0.0064756 11.1591 69.0495 0 0 1
6521 15 16 0.46 -2.87984 13.9843 65.9822 -1 1 1
3452 15 16 0.46 1.61871 11.01 68.391 -1 0 1
6520 15 15 0 -4.15514 14.1376 66.5856 -1 1 1
3842 15 16 0.46 2.13966 15.5379 69.542 -1 0 0
5909 15 16 0.46 7.22623 9.01763 67.3732 -1 -1 1
4298 15 16 0.46 5.14255 12.2769 63.9783 0 0 1
4297 15 15 0 5.2784 11.0116 63.3514 0 0 1
4299 15 17 -0.46 4.63544 9.75185 63.2606 0 0 1
3453 15 17 -0.46 3.65916 11.9488 68.7701 -1 0 1
3451 15 15 0 2.96867 11.0139 67.9588 -1 0 1
3058 15 15 0 4.83447 15.1521 65.2576 0 0 1
3060 15 17 -0.46 4.99617 13.8697 64.6734 0 0 1
4293 15 17 -0.46 7.93 10.6871 67.6144 -1 0 0
4291 15 15 0 8.41391 12.0105 67.7566 -1 0 0
4292 15 16 0.46 9.03713 12.8124 68.7441 -1 0 0
3454 15 15 0 -34.5278 23.1796 69.325 0 0 1
6693 15 17 -0.46 -23.6838 16.0991 68.7478 0 0 1
6691 15 15 0 -24.6302 16.9974 69.3017 0 0 1
476 15 16 0.46 -23.1745 19.7505 64.4279 0 0 0
475 15 15 0 -24.3822 20.4926 64.4409 0 0 0
477 15 17 -0.46 -24.4919 21.8772 64.7284 0 0 0
2682 15 17 -0.46 -21.7122 18.7488 64.4997 0 0 1
2680 15 15 0 -20.5349 17.9616 64.5558 0 0 1
2681 15 16 0.46 -20.7298 16.8016 65.3437 0 0 1
5545 15 15 0 -16.8114 16.2429 67.8827 -1 0 0
373 15 15 0 -15.1253 18.3116 63.5538 0 0 1
375 15 17 -0.46 -14.2325 17.456 64.2494 0 0 1
4064 15 16 0.46 -13.1761 16.3978 65.0625 -1 0 0
5547 15 17 -0.46 -15.7943 17.0008 68.5157 -1 0 0
374 15 16 0.46 -15.9521 17.883 62.4855 0 0 1
6890 15 16 0.46 -14.602 17.9761 69.4245 0 0 0
2379 15 17 -0.46 -8.00687 18.2653 67.126 -1 0 0
2377 15 15 0 -7.54546 17.1444 66.389 -1 0 0
2378 15 16 0.46 -6.47329 16.2175 66.4667 -1 0 0
6059 15 16 0.46 -8.59756 19.6505 67.9675 0 -1 0
6060 15 17 -0.46 -9.59847 21.8327 67.874 0 -1 0
1657 15 15 0 -6.82731 21.6238 63.8205 0 -1 1
1659 15 17 -0.46 -6.53704 22.9124 64.3325 0 -1 1
6058 15 15 0 -9.08401 20.7811 68.6733 0 -1 0
1658 15 16 0.46 -7.17198 21.9354 62.4827 0 -1 1
6713 15 16 0.46 -10.2439 23.1806 66.9008 -1 0 1
3841 15 15 0 0.929373 15.9825 68.9544 -1 0 0
2016 15 17 -0.46 -0.298658 18.3714 64.5486 -1 -2 0
974 15 16 0.46 -2.47632 21.3163 66.6099 0 0 0
973 15 15 0 -2.14647 22.4196 65.7803 0 0 0
3843 15 17 -0.46 0.979924 16.7758 67.7795 -1 0 0
975 15 17 -0.46 -1.43668 22.5215 64.5561 0 0 0
2014 15 15 0 0.985613 18.4834 65.1416 -1 -2 0
2015 15 16 0.46 0.976613 17.7283 66.3428 -1 -2 0
5195 15 16 0.46 -0.592042 22.6282 63.0344 -1 0 1
3971 15 16 0.46 -1.85651 18.1705 63.8961 -1 0 1
3970 15 15 0 -3.17077 18.0063 63.3865 -1 0 1
1137 15 17 -0.46 1.89746 21.7027 68.7802 0 -1 0
4449 15 17 -0.46 -2.89321 19.9774 67.6226 -1 0 1
4447 15 15 0 -3.25223 18.8929 68.464 -1 0 1
3972 15 17 -0.46 -3.56348 18.499 62.1149 -1 0 1
4448 15 16 0.46 -3.38509 17.8428 69.4088 -1 0 1
3059 15 16 0.46 5.0532 16.2337 66.1485 0 0 1
4554 15 17 -0.46 5.27972 17.6102 67.2112 -1 0 0
4552 15 15 0 5.47926 18.6852 68.1155 -1 0 0
2025 15 17 -0.46 3.73132 22.2431 65.1662 -1 0 1
2024 15 16 0.46 2.53244 22.4606 67.302 -1 0 1
4553 15 16 0.46 5.98802 18.582 69.436 -1 0 0
3017 15 16 0.46 4.55996 21.2204 63.9333 0 -1 0
3016 15 15 0 5.1963 20.4228 62.9501 0 -1 0
2023 15 15 0 3.07471 23.0474 66.1307 -1 0 1
6309 15 17 -0.46 -42.8971 25.358 69.319 0 0 0
1547 15 16 0.46 -43.337 28.2625 64.0009 -1 -1 1
4887 15 17 -0.46 -44.6154 27.4127 64.8666 1 1 0
4886 15 16 0.46 -45.413 27.727 66.7545 1 1 0
4885 15 15 0 -45.6127 26.8219 65.6827 1 1 0
1546 15 15 0 -42.2873 28.9911 63.3874 -1 -1 1
6307 15 15 0 -41.7601 25.2151 68.4878 0 0 0
6308 15 16 0.46 -40.6878 25.3326 67.5704 0 0 0
4510 15 15 0 -44.6691 30.0279 68.8956 0 0 1
4512 15 17 -0.46 -45.0287 29.0187 67.969 0 0 1
1548 15 17 -0.46 -41.9006 29.1578 62.0327 -1 -1 1
3456 15 17 -0.46 -33.3713 23.4873 68.563 0 0 1
4501 15 15 0 -39.666 29.7795 67.8266 1 1 0
4503 15 17 -0.46 -38.886 28.8418 68.5497 1 1 0
3825 15 17 -0.46 -39.2417 25.3954 66.3502 -1 0 1
3824 15 16 0.46 -36.9276 25.6651 64.7719 -1 0 1
3823 15 15 0 -38.1672 25.4873 65.4323 -1 0 1
3494 15 16 0.46 -37.8947 27.6936 69.4509 1 -1 0
2163 15 17 -0.46 -35.3029 25.8009 63.8127 0 0 0
2161 15 15 0 -34.0669 26.0025 63.1521 0 0 0
2162 15 16 0.46 -33.3503 25.607 61.9959 0 0 0
2809 15 15 0 -37.0005 30.2988 63.5973 0 -1 1
2811 15 17 -0.46 -36.3157 30.3504 64.8351 0 -1 1
934 15 15 0 -34.6234 30.6582 67.6052 1 0 1
935 15 16 0.46 -35.3839 30.4382 66.4316 1 0 1
3326 15 16 0.46 -31.9428 23.9406 67.6754 1 0 0
3325 15 15 0 -30.7702 24.3261 66.9763 1 0 0
2493 15 17 -0.46 -30.1878 28.9823 68.8453 0 -1 0
2491 15 15 0 -29.2155 29.7365 68.1458 0 -1 0
3037 15 15 0 -28.4017 27.2588 63.5742 1 0 1
3038 15 16 0.46 -27.2774 26.5727 64.1016 1 0 1
3039 15 17 -0.46 -28.5848 27.8517 62.2982 1 0 1
3327 15 17 -0.46 -29.6755 24.6269 67.8264 1 0 0
6110 15 16 0.46 -28.3366 25.0148 68.8723 -1 0 1
2492 15 16 0.46 -28.5514 29.8933 69.3862 0 -1 0
1182 15 17 -0.46 -32.6825 30.5077 61.9638 0 -1 0
5496 15 17 -0.46 -25.9273 25.6944 64.7216 0 0 1
5494 15 15 0 -24.8201 24.9856 65.2554 0 0 1
5495 15 16 0.46 -24.6953 23.5924 65.02 0 0 1
878 15 16 0.46 -22.9804 29.7491 62.4128 -1 -1 1
877 15 15 0 -23.7284 29.8237 63.6174 -1 -1 1
1050 15 17 -0.46 -19.5729 26.1358 62.513 0 -1 0
879 15 17 -0.46 -24.8561 30.6529 63.852 -1 -1 1
3551 15 16 0.46 -23.9954 30.4358 69.0887 0 0 0
7134 15 17 -0.46 -23.5541 28.8144 69.447 -1 0 0
1048 15 15 0 -18.4241 26.7348 63.083 0 -1 0
1049 15 16 0.46 -17.3881 26.4838 62.1501 0 -1 0
1332 15 17 -0.46 -14.3914 29.4877 69.3405 0 0 1
6714 15 17 -0.46 -10.5605 24.9586 64.8858 -1 0 1
6712 15 15 0 -10.7677 24.1999 66.066 -1 0 1
2066 15 16 0.46 -10.4081 25.9436 63.4085 0 -1 0
2065 15 15 0 -10.2444 26.774 62.2707 0 -1 0
6011 15 16 0.46 -6.17503 24.5973 64.8204 0 -1 1
6010 15 15 0 -5.81175 25.9558 64.9906 0 -1 1
6012 15 17 -0.46 -5.24645 25.9978 63.6928 0 -1 1
6375 15 17 -0.46 -4.84179 30.6458 62.2372 0 0 -1
4628 15 16 0.46 -4.5372 25.8099 62.0241 0 0 1
6876 15 17 -0.46 -1.53704 28.17 64.0445 0 0 0
6874 15 15 0 -0.680493 27.2191 64.6542 0 0 0
1239 15 17 -0.46 -0.574684 26.3096 67.7356 0 0 0
6875 15 16 0.46 -0.66344 26.8091 66.0112 0 0 0
1237 15 15 0 -0.498994 25.8922 69.0881 0 0 0
6374 15 16 0.46 -2.72806 29.3232 63.3254 0 0 -1
6373 15 15 0 -3.55005 30.2963 62.7043 0 0 -1
4457 15 16 0.46 6.1794 25.0809 62.1299 1 0 0
4356 15 17 -0.46 7.85274 24.7865 62.6346 -1 0 0
4354 15 15 0 9.20257 24.5277 62.9827 -1 0 0
4355 15 16 0.46 10.2722 25.3409 63.4325 -1 0 0