LAMMPS data file via write_data, version 31 Aug 2021, timestep = 20000

7236 atoms
32 atom types
7366 bonds
138 bond types
2655 angles
66 angle types
10 dihedrals
10 dihedral types
51 impropers
17 improper types

-47.1069542017885 16.38891518451802 xlo xhi
-28.275943194048573 45.43784181970262 ylo yhi
61.8805044951155 123.61119912196789 zlo zhi

Masses

1 72
2 72
3 72
4 72
5 72
6 72
7 72
8 72
9 72
10 72
11 45
12 45
13 45
14 45
15 24
16 24
17 24
18 72
19 72
20 72
21 45
22 45
23 45
24 45
25 45
26 45
27 45
28 45
29 45
30 45
31 45
32 45

Atoms # full

3997 15 15 0 14.224059406928909 -26.37093050088266 65.17308040901544 0 0 1
3999 15 17 -0.46 13.806506509550132 -26.818371127464253 63.91393527696161 0 0 1
7226 15 16 0.46 -43.955117000605235 44.244310261640834 63.67378505154181 0 0 0
1169 15 16 0.46 15.180560456482267 41.911686515929944 64.23662731811461 0 0 0
7225 15 15 0 -44.49038684307951 45.26220407407954 64.47214485911338 0 0 0
7227 15 17 -0.46 -44.929146728687975 44.67352950531273 65.66418177754286 0 0 0
2642 15 16 0.46 -44.52848232496865 -21.277006789681945 66.86171940460287 0 1 0
2611 15 15 0 -39.189675173485284 44.22088514443753 64.8096489108399 0 0 0
4758 15 17 -0.46 -45.65803291767792 -27.9783929798138 69.00166542964446 1 1 0
5481 15 17 -0.46 -45.98386928273709 -22.966522137880585 121.84592023205865 1 0 -1
6796 15 15 0 -42.55542899824324 -20.096680679167836 62.73566196143053 0 1 0
1506 15 17 -0.46 -41.59795437639502 -16.963163886358366 71.32965763968569 0 1 1
2612 15 16 0.46 -38.58975360602439 45.39125593447611 64.32972565997427 0 0 0
3218 15 16 0.46 -33.187942569601375 -27.011438808688567 64.97371603246711 0 0 0
4304 15 16 0.46 -36.87373600209415 -25.04117546942885 67.72619912317248 -1 0 1
4303 15 15 0 -37.752222649742045 -26.13016885803577 67.67767480478643 -1 0 1
4305 15 17 -0.46 -38.53262001570315 -26.562273949457527 68.75668599155345 -1 0 1
3959 15 16 0.46 -34.99329323092526 -21.832517674430047 68.2984112321647 0 0 0
386 15 16 0.46 -26.82258577863727 -28.019807448851815 66.62681168492814 0 0 0
7081 15 15 0 -28.57451420492562 -22.67907593828945 66.40561553186313 0 0 0
7082 15 16 0.46 -28.479908050732487 -23.64734627643046 65.39888705413682 0 0 0
3597 15 17 -0.46 -32.89142187161329 -26.65425911575971 67.05668364118185 0 1 0
3595 15 15 0 -32.49920511009934 -26.860791416708274 68.38465593782526 0 1 0
3596 15 16 0.46 -31.454691928627053 -27.542270033646812 67.74859060439934 0 1 0
5196 15 17 -0.46 -33.3729786849187 -24.172199047502414 73.3758590781911 0 1 1
4461 15 17 -0.46 -23.9111478590191 -27.19339599081317 122.12452084040069 0 1 0
5194 15 15 0 -33.16418202287563 -25.548650514373335 73.22826059151609 0 1 1
3958 15 15 0 -34.71991324188065 -22.544565493420812 67.12442175816568 0 0 0
3960 15 17 -0.46 -35.5537468997591 -23.667964984239187 67.07250822411022 0 0 0
2599 15 15 0 -26.07054651553453 -18.991619809768412 68.35309470613912 0 0 0
4459 15 15 0 -24.773205533977347 -27.32146131655906 123.22017399600642 0 1 0
4460 15 16 0.46 -24.635190776579027 -26.035464411406338 62.02535611494403 0 1 1
385 15 15 0 -27.82740885831751 -27.346423274376097 65.92191145645059 0 0 0
387 15 17 -0.46 -27.4778038281224 -25.99853615755522 66.06674461277458 0 0 0
2601 15 17 -0.46 -25.865525704052494 -17.623664496541902 68.1370745036704 0 0 0
3504 15 17 -0.46 -22.526391375077285 -24.290509913419033 62.898577943019056 0 1 0
3502 15 15 0 -22.66800871462808 -23.944540661988214 64.24774428050415 0 1 0
3503 15 16 0.46 -23.624537880225482 -22.985970931906593 63.89250347776211 0 1 0
1122 15 17 -0.46 -8.975953389825445 45.090682104644934 62.84791886984501 1 -1 1
2600 15 16 0.46 -27.406601229181437 -18.898160209465175 68.76079938510793 0 0 0
6221 15 16 0.46 -20.193451241803867 -25.442646234639454 70.20736054044895 0 0 0
6222 15 17 -0.46 -19.841627101850296 -27.588189147921543 69.80481963400281 0 0 0
6220 15 15 0 -19.595261944768954 -26.311182905968092 69.28659259168525 0 0 0
4100 15 16 0.46 -16.817278648786846 -23.105571279884174 63.2668458612978 0 0 1
1121 15 16 0.46 -11.36869948382259 44.622665116333955 63.538095276275406 1 -1 1
1120 15 15 0 -10.087103823067762 45.16343079828153 63.69647784969236 1 -1 1
6060 15 17 -0.46 -12.648694078937352 -26.618222773749444 123.3705492006041 0 0 0
6059 15 16 0.46 -12.525085788176893 -24.72230021891056 63.16928115728237 0 0 1
6058 15 15 0 -13.157621895374353 -25.407657347046417 62.125162543327896 0 0 1
4670 15 16 0.46 -20.845615975088307 -24.535359482954387 121.25842732759551 0 0 -1
3355 15 15 0 -14.92270919447781 -24.96955681369961 67.16599138468385 0 1 1
3357 15 17 -0.46 -13.961483338500548 -23.952387331581264 67.20355597503021 0 1 1
5450 15 16 0.46 -13.123044328609883 -20.787139863682004 66.91212349899368 0 0 0
5451 15 17 -0.46 -14.277583708675829 -19.072157039672007 68.4941601300581 0 0 0
5449 15 15 0 -14.150833633490809 -20.171091919261002 67.63609454464896 0 0 0
6475 15 15 0 -5.570107140266238 -26.874276876107206 65.91569795134389 0 1 1
6561 15 17 -0.46 -4.688365297512338 -22.767405277058543 74.30848860116957 0 1 1
506 15 16 0.46 -9.968097574242393 -21.37138935445027 63.116131493127796 0 0 1
505 15 15 0 -11.085497849450642 -21.083075471727675 63.908780047024294 0 0 1
507 15 17 -0.46 -12.095270647574994 -22.049451660292345 63.82830670769117 0 0 1
4980 15 17 -0.46 -8.012167434269125 -18.13747038036208 72.20501031182444 1 0 0
6311 15 16 0.46 -6.004029147143863 -24.36031566460258 68.77209769458457 0 1 0
6312 15 17 -0.46 -6.32157624542324 -22.11384711073816 69.3277210766881 0 1 0
6310 15 15 0 -5.4037699270143555 -23.158723462437084 69.16689517221658 0 1 0
2411 15 16 0.46 -0.46716670245969144 -23.975281974797102 69.17449193549038 0 1 1
2410 15 15 0 -0.6776089258243689 -23.89140452149739 67.79294257211016 0 1 1
3814 15 15 0 2.2037287482372125 -21.965447927981273 62.62887344566299 0 1 0
6654 15 17 -0.46 2.4919381700997563 45.077339035072484 66.68046043335873 0 0 0
6560 15 16 0.46 -2.8332364667212264 -23.725862829515442 73.8358289990125 0 1 1
6559 15 15 0 -3.312976563965892 -22.506924347480737 74.32983144446257 0 1 1
6653 15 16 0.46 1.0679161535116448 -26.48203235724289 67.0675558530735 0 1 0
6652 15 15 0 2.0877250603831365 -27.300799265300384 66.56794546113218 0 1 0
3016 15 15 0 -2.2314525077472918 43.40914017174108 65.37700913367014 0 -1 0
3816 15 17 -0.46 2.5711159324185915 -21.082427367718175 63.651273243712666 0 1 0
3017 15 16 0.46 -1.1699995595625103 43.36357295343704 64.46528479626889 0 -1 0
2792 15 16 0.46 -0.48885450378035633 -17.054100348961082 67.05504773428842 -1 0 1
6176 15 16 0.46 1.8331196744789502 -18.606336917714216 70.42253784617299 0 0 1
4968 15 17 -0.46 4.130379946705853 -25.5210929177355 62.91262649094208 0 1 1
4966 15 15 0 5.160356210450388 -26.325337293107744 63.41496092217793 0 1 1
4967 15 16 0.46 6.062427170105958 -27.12070898299009 62.69826582753848 0 1 1
2705 15 16 0.46 3.758101538808793 -21.374871951456008 67.93290465658706 -1 1 0
2793 15 17 -0.46 0.9568638548575387 -16.863057243046818 65.63916976367537 -1 0 1
2791 15 15 0 -0.2122490211295057 -17.615654782373227 65.80279136066413 -1 0 1
2706 15 17 -0.46 5.2015649163053945 -22.531991546333423 66.5087625639956 -1 1 0
2704 15 15 0 4.144104784237811 -22.619865109039203 67.42202939579506 -1 1 0
6531 15 17 -0.46 6.404958620359035 44.19967948062346 67.55216025553291 -1 0 1
7191 15 17 -0.46 5.996463493402057 -27.542066094869437 71.28291262148761 -1 1 -1
1168 15 15 0 14.940873171227153 42.64405929152026 63.06779023671226 0 0 0
1170 15 17 -0.46 13.96008992650465 42.65969231671113 62.068880913803035 0 0 0
3998 15 16 0.46 13.666506725505444 -26.777253295368723 66.39129089744449 0 0 1
4926 15 17 -0.46 10.431850996879783 -25.0515131522168 65.95424765587039 -1 0 0
4925 15 16 0.46 9.89808606235933 -24.956735452831122 67.0487064103263 -1 0 0
4924 15 15 0 9.032856122811028 -24.99874423610126 65.94888259996466 -1 0 0
733 15 15 0 12.744817471147927 -18.916684934392975 72.1163439890115 0 1 0
2845 15 15 0 12.657106393440127 -21.434952613744343 64.95418731354646 0 1 0
2847 15 17 -0.46 13.693604315903157 -21.67864518507706 64.04518457020237 0 1 0
1258 15 15 0 10.8842566688082 -22.979913011936823 70.23871060650413 0 1 0
410 15 16 0.46 -42.315476361207566 -12.448731552473976 66.86089438565986 0 0 1
409 15 15 0 -41.00479347247977 -12.040398469567037 66.58635029339072 0 0 1
4242 15 17 -0.46 -42.926259954902314 -18.61355646522205 65.67462794921994 1 0 0
4240 15 15 0 -42.75314528619574 -17.425307520935316 66.39441663896164 1 0 0
4241 15 16 0.46 -43.52012116917514 -17.530590646341402 67.56089143870346 1 0 0
2641 15 15 0 -44.89499349207417 -22.580885310795395 66.50736031192146 0 1 0
2643 15 17 -0.46 -44.05495891499427 -22.965283970762016 67.5593011750531 0 1 0
411 15 17 -0.46 -40.5913669952984 -12.089162864471934 67.92302549019622 0 0 1
773 15 16 0.46 -45.73790010689765 -15.240363266040584 62.652438152114456 0 0 0
4837 15 15 0 13.501297767901153 -13.95819808614792 63.116667828792785 0 0 0
4838 15 16 0.46 13.241597548648524 -13.762458536005013 123.4856569718382 0 0 -1
1363 15 15 0 -46.54931753668085 -13.28564552428018 67.16234997033929 1 0 1
1364 15 16 0.46 -46.2163438221857 -14.207277111164993 66.16248811812596 1 0 1
1723 15 15 0 16.065481234197744 -14.583691952895022 119.92428853687714 -1 1 -1
4409 15 16 0.46 -39.68481130896613 -21.582147462403288 68.28968115615524 0 1 0
4410 15 17 -0.46 -39.351873518232935 -21.04836351307236 65.63508573614486 0 1 0
4408 15 15 0 -39.266730604087336 -21.137754316011 67.02963224613325 0 1 0
873 15 17 -0.46 -39.34552585611887 -14.891245799923672 64.32508516729186 1 0 -1
871 15 15 0 -38.33481795310507 -15.72942973158916 63.839372050850386 1 0 -1
5956 15 15 0 -37.51667625962698 -13.260921834494205 70.40900121673009 0 0 0
5957 15 16 0.46 -37.25900210363196 -11.932914003292781 70.76955527592226 0 0 0
7083 15 17 -0.46 -29.83461581807342 -23.265321527092635 66.23691451185677 0 0 0
6542 15 16 0.46 -32.27442139567835 -17.867247883823175 68.7456892411361 0 0 0
6541 15 15 0 -31.100394792465625 -18.21372228494859 68.0662652024727 0 0 0
6543 15 17 -0.46 -30.660117381649812 -19.29034888924312 68.84538711620036 0 0 0
5142 15 17 -0.46 -33.405531826597674 -13.437672670236026 71.2117806971987 1 0 0
2042 15 16 0.46 -33.10872334885002 -16.26569534304388 63.79829832824914 0 0 0
1414 15 15 0 -32.40550672539101 -19.760400884171254 63.16130584054434 0 0 1
1416 15 17 -0.46 -32.6554839835148 -18.3844061382426 63.0968866695028 0 0 1
1249 15 15 0 -20.206131341383934 -18.40761347232836 123.25891710804095 1 0 -1
2688 15 17 -0.46 -25.732787317281005 -21.929238776010564 63.27950375759791 0 0 0
2687 15 16 0.46 -26.784481025515063 -20.875233577274745 122.95481274029967 0 0 -1
1250 15 16 0.46 -20.809041488007793 -17.66855068608036 62.55305688394899 1 0 0
2686 15 15 0 -25.98519516549365 -20.892287392494186 62.3734010557014 0 0 0
4708 15 15 0 -23.020722711610674 -16.3648852890115 65.06255417841251 0 0 1
5806 15 15 0 -20.585145302298848 -13.239226416292638 122.37247059298632 1 1 0
5808 15 17 -0.46 -21.18776213146783 -13.59007081508467 121.15848494025455 1 1 0
5807 15 16 0.46 -20.52570104186089 -11.844073739825792 122.47254750964737 1 1 0
2660 15 16 0.46 -28.582788888977497 -15.969678463025792 62.373054081510766 0 0 0
4101 15 17 -0.46 -16.293064923426773 -20.578902147684556 63.3642662936212 0 0 1
4099 15 15 0 -17.077987528053825 -21.737336916632994 63.40814556933523 0 0 1
4709 15 16 0.46 -24.295237080335088 -15.839477438043184 65.30660276795157 0 0 1
4710 15 17 -0.46 -22.00834613470992 -16.41726306080291 64.09697133081971 0 0 1
4669 15 15 0 -20.56518705960452 -23.250742570762284 121.73917571528983 0 0 -1
2511 15 17 -0.46 -18.729927471588834 -12.433777560800072 67.00858808681262 0 0 0
2509 15 15 0 -19.184107778976927 -12.618919431477435 65.69731285403198 0 0 0
6390 15 17 -0.46 -14.10425893530764 -11.082916194546307 62.75150152589242 0 0 0
6388 15 15 0 -14.404110122854249 -12.394715519480165 62.36514444178984 0 0 0
4082 15 16 0.46 -16.054507595309907 -18.652334142943143 63.540088221099474 0 1 0
4083 15 17 -0.46 -14.045455127405392 -17.69797612282188 63.579169515773714 0 1 0
6389 15 16 0.46 -13.97355034601011 -12.359560487549926 63.69682848926333 0 0 0
4081 15 15 0 -15.400815545594186 -17.44745246662465 63.82459982052979 0 1 0
7163 15 16 0.46 -10.13445088104938 -17.428643105608362 66.34544860529594 1 0 0
3594 15 17 -0.46 -5.956666103626868 -13.21265873791977 67.19285154931632 0 0 1
3592 15 15 0 -6.857410053525106 -14.024439502033152 66.49308564007433 0 0 1
1148 15 16 0.46 -7.0813858075753995 -20.27132555774028 68.15795989359275 0 0 1
1149 15 17 -0.46 -8.645983149412965 -19.10409895515978 66.60076055160727 0 0 1
2333 15 16 0.46 -10.195145037617253 -11.941425224975607 70.50458007261294 0 1 0
1147 15 15 0 -8.221760099681553 -19.511507471787393 67.87121444870702 0 0 1
2994 15 17 -0.46 -8.247023280089921 -22.492424598829192 62.090994198136265 0 1 0
7162 15 15 0 -10.934017016415071 -16.332980296829422 65.99872536604737 1 0 0
7164 15 17 -0.46 -10.737141634406408 -14.950205326882958 65.90294715115218 1 0 0
2992 15 15 0 -7.7003488359868735 -23.76920704788095 62.26698746493396 0 1 0
1865 15 16 0.46 -5.930364561642409 -18.61033506279512 62.54166763527155 0 0 1
5714 15 16 0.46 -0.4311546789903577 -12.457168998891921 67.37360502016068 0 1 0
5713 15 15 0 0.3460717714309283 -12.511860406915224 68.5367593068544 0 1 0
5715 15 17 -0.46 1.6185930679451015 -13.011034709315897 68.83927305156823 0 1 0
1536 15 17 -0.46 -4.550255297491038 -19.183055158818245 64.84560268531546 0 0 1
1535 15 16 0.46 -2.685024995242692 -20.764699273255083 65.38702892011622 0 0 1
1534 15 15 0 -4.035043590350241 -20.407770907900442 65.28676958205085 0 0 1
4419 15 17 -0.46 4.871001807372796 -15.250662107995028 64.9869700365144 -1 1 0
4417 15 15 0 4.979791035926092 -16.644285338585597 64.9096447824952 -1 1 0
4418 15 16 0.46 3.6920127106774476 -17.185969654012105 64.8190628447773 -1 1 0
960 15 17 -0.46 2.6627539135425127 -16.722919031874767 69.76946073587757 0 1 0
958 15 15 0 3.5709132613076995 -15.67390895769527 69.95607387404515 0 1 0
959 15 16 0.46 2.5204492762877058 -14.748673763556992 69.93450417993473 0 1 0
5629 15 15 0 6.968399972243013 -21.17471223618383 64.03368834065611 -1 1 0
5631 15 17 -0.46 8.25817666669209 -20.639779466747203 63.93208612296931 -1 1 0
5630 15 16 0.46 6.079773668863039 -21.938795880416198 64.79953393707737 -1 1 0
338 15 16 0.46 8.8372573015004 -18.851345199910472 67.65667920879895 -1 0 0
1313 15 16 0.46 10.289449280110423 -18.766808458269644 63.75347334919951 -1 0 1
1312 15 15 0 10.216813878237275 -17.422773425402244 64.13856285674389 -1 0 1
1325 15 16 0.46 13.229456484407999 -17.0570221921087 66.56011102019464 -1 1 -1
1324 15 15 0 14.11461229316945 -17.165636057745935 67.63932472581887 -1 1 -1
1326 15 17 -0.46 14.345563368931277 -17.85371453221984 66.4421573968418 -1 1 -1
5949 15 17 -0.46 -46.226505276029215 -18.36551817664823 62.67633942506253 0 1 0
339 15 17 -0.46 8.382714259180892 -17.753884817209364 68.86094222036613 -1 0 0
337 15 15 0 7.6415974354620335 -18.842063783245003 68.38490399555772 -1 0 0
5948 15 16 0.46 15.339491428913094 -19.838950833249 62.703547760985515 -1 1 0
5947 15 15 0 15.925726847931971 -18.61212703128818 62.370034054474765 -1 1 0
6587 15 16 0.46 11.554459187784303 -10.474003229481248 72.20632393227875 0 1 0
1830 15 17 -0.46 10.043201030161294 -13.211443321326794 67.36208491838924 -1 0 0
774 15 17 -0.46 -45.115884674108024 -14.50730892105652 64.28327426446624 0 0 0
2351 15 16 0.46 -46.452699273627985 -10.150906540218921 67.73462309178191 0 0 0
2350 15 15 0 -45.82194968008671 -8.903366692652854 67.81077608899075 0 0 0
2352 15 17 -0.46 -46.384438521414715 -8.301372466722839 68.9426812331302 0 0 0
1785 15 17 -0.46 -42.404764602166125 -6.722084902613967 62.00092173793366 1 0 0
1784 15 16 0.46 -41.115840928212506 -8.158569983430901 62.18540497993215 1 0 0
1783 15 15 0 -42.50941172253999 -8.086156202574918 62.29817326244155 1 0 0
4839 15 17 -0.46 13.946592446323905 -14.972526634057669 63.97273455882247 0 0 0
1365 15 17 -0.46 -46.1847536919474 -12.02997200775226 67.66272705115291 1 0 1
842 15 16 0.46 -38.1434097516378 -9.509499488916223 62.71288186576267 0 0 0
843 15 17 -0.46 -38.915465302564265 -7.983173828277308 62.46142919674413 0 0 0
841 15 15 0 -38.01348337352483 -8.339741131098464 63.471027314001745 0 0 0
4366 15 15 0 -35.36257589128933 -11.108035024065515 66.54644072711511 0 0 0
4368 15 17 -0.46 -36.16614458222241 -10.02324180543833 66.91725204271059 0 0 0
5958 15 17 -0.46 -36.994653744928975 -14.505634181728205 70.03727057931692 0 0 0
772 15 15 0 -44.854273607318476 -14.194330427902958 62.94401920565251 0 0 0
2311 15 15 0 -36.57519914912483 -1.9231601486963326 120.44574079741197 0 0 -1
2312 15 16 0.46 -37.32882477732511 -2.6477893159977293 119.51463340166391 0 0 -1
2313 15 17 -0.46 -36.10098433259672 -0.6153185355251832 120.28867195058501 0 0 -1
3104 15 16 0.46 -39.2244836995778 -13.445002615989518 122.5471991973869 0 1 -1
3103 15 15 0 -39.18549428961091 -12.049776367715435 122.43846308545778 0 1 -1
4367 15 16 0.46 -35.38092351840547 -11.84319722545037 65.35513895920137 0 0 0
2659 15 15 0 -28.278610207691894 -16.62742988543112 63.57090148254989 0 0 0
5831 15 16 0.46 -29.980512735480886 -10.515335242167726 64.91639125035121 0 0 1
5830 15 15 0 -30.087696065959292 -11.911175598877938 64.92828378081269 0 0 1
5832 15 17 -0.46 -31.18744370028368 -11.359753054885132 64.26008596663762 0 0 1
2043 15 17 -0.46 -34.25314815649059 -14.211193277066494 65.17799348862533 0 0 0
2041 15 15 0 -33.55580434187294 -15.350470709012978 64.75875783022782 0 0 0
2661 15 17 -0.46 -27.873698493160067 -16.322061262900217 64.87581393471234 0 0 0
3940 15 15 0 -24.265456584371357 -11.453967257400585 65.19060480190795 0 0 1
3942 15 17 -0.46 -25.202037710327627 -12.200785973368472 64.4659824175013 0 0 1
3941 15 16 0.46 -24.87449799405508 -12.3352439723872 66.09194819535641 0 0 1
4722 15 17 -0.46 -24.31472529130401 -9.98356413611978 123.01793171234716 1 0 0
4720 15 15 0 -23.788902768394163 -8.844882158529726 122.3959075743008 1 0 0
4721 15 16 0.46 -22.59704956276447 -8.924655760689127 123.12605968765028 1 0 0
5843 15 16 0.46 -18.66366228001716 -7.998591493723965 63.16690112613099 0 1 0
5842 15 15 0 -18.595067933681037 -9.065506244248946 62.263027390057694 0 1 0
555 15 17 -0.46 -25.46553786127915 -13.411144977578127 67.77227913346265 0 0 0
1045 15 15 0 -14.682960392320963 -12.29793251799734 66.83130098836605 0 0 0
1046 15 16 0.46 -15.894827171809682 -12.16686026553141 67.51992205499499 0 0 0
1047 15 17 -0.46 -14.571149621513799 -12.459472402891448 65.44515409242749 0 0 0
439 15 15 0 -10.386816883023517 -10.508634710818376 121.2027128813783 -1 0 0
440 15 16 0.46 -11.415375405359223 -9.740272168653437 120.64442409408797 -1 0 0
6608 15 16 0.46 -18.25927208626906 -3.8105592659413263 63.020139092452744 0 0 0
3593 15 16 0.46 -7.066269853027664 -14.146938684864182 65.11418334681439 0 0 1
586 15 15 0 -13.759195317454438 -7.58007037595215 63.00785046818123 0 0 1
587 15 16 0.46 -14.06837477573884 -8.913840660772234 63.30019425536667 0 0 1
588 15 17 -0.46 -13.526873223876855 -6.352387868773595 62.3763268293493 0 0 1
5678 15 16 0.46 -7.216008392104642 -10.026863140908507 68.43230844986176 0 0 0
517 15 15 0 -2.9283901122323472 -11.041869180261454 65.461561889085 -1 0 0
519 15 17 -0.46 -1.9934339091351387 -11.939332401493584 65.9911057161907 -1 0 0
3835 15 15 0 -10.226066118681764 -10.906715932890314 64.69126888805629 0 0 0
3837 15 17 -0.46 -9.202166624417702 -11.38526486789578 65.51747754357312 0 0 0
3836 15 16 0.46 -10.449194342794259 -12.064104138563676 63.935844280982494 0 0 0
5679 15 17 -0.46 -5.7665083100654195 -8.418668488637236 68.67873294638075 0 0 0
5677 15 15 0 -6.623306086033942 -8.97603544359592 67.7220513647583 0 0 0
6128 15 16 0.46 -0.06116638824124126 -13.462798760847985 62.01030905180581 0 0 0
6129 15 17 -0.46 -1.4522528063518816 -13.441245047706657 122.47366677608439 0 0 -1
6127 15 15 0 -1.2145370466915517 -14.243074299114879 123.59641388438408 0 0 -1
1940 15 16 0.46 0.6423081475071598 -8.774532926871013 63.25054700305307 -1 0 1
1939 15 15 0 1.044850735165067 -8.047026860437187 64.37691034959082 -1 0 1
518 15 16 0.46 -4.034561363196314 -11.880154375626342 65.6450369412662 -1 0 0
1941 15 17 -0.46 1.4726126074329047 -6.726386573104679 64.19544682127663 -1 0 1
6218 15 16 0.46 -4.087294969496627 -8.486720788333423 70.14592640147798 -1 0 0
5734 15 15 0 4.904126430561032 -11.990569868638826 65.33618315475147 0 0 0
5735 15 16 0.46 4.620435037440768 -13.347722431114361 65.53023499224751 0 0 0
6325 15 15 0 2.8740681391522487 -12.101955791062531 122.47073073637183 0 0 -1
6327 15 17 -0.46 1.4923547469872094 -12.174136104997588 122.68440830700699 0 0 -1
740 15 16 0.46 9.070326834892148 -10.703208394841848 64.5814529891288 0 1 0
5736 15 17 -0.46 4.707035431584264 -10.674988618264056 65.77253291329937 0 0 0
739 15 15 0 9.669461489920533 -10.604038401025187 63.3200240464331 0 1 0
741 15 17 -0.46 10.733976283993718 -10.381452257299262 62.43839846727801 0 1 0
1829 15 16 0.46 9.346158706545399 -15.476906713932044 66.92318093447213 -1 0 0
5133 15 17 -0.46 10.868339872445622 -5.570849053523969 66.15189644578508 0 0 1
5132 15 16 0.46 12.873257204444279 -7.0796389893200855 65.03555794078626 0 0 1
5131 15 15 0 11.831310371751966 -6.200586162637356 65.3543257649854 0 0 1
2817 15 17 -0.46 9.914457510663556 -0.6776941220173227 62.908701068538306 -1 0 1
1828 15 15 0 9.264789292282432 -14.321839485430637 67.7100727415617 -1 0 0
4249 15 15 0 15.772092528125743 -8.582648746057655 63.51270893183007 1 0 0
4251 15 17 -0.46 14.671288798478226 -8.59799207875519 64.37757639620594 1 0 0
1781 15 16 0.46 -41.42228766666183 -4.605492164848245 62.63202360569378 1 0 0
1782 15 17 -0.46 -40.45183555369209 -2.8438094450012747 123.45091202076874 1 0 -1
1780 15 15 0 -40.172854427431176 -3.9966833090040663 62.46389164040537 1 0 0
3267 15 17 -0.46 -44.022145072260656 -2.460395980281362 70.07015000156832 1 0 1
3265 15 15 0 -44.91329379384619 -1.6899572105114675 69.31365938163175 1 0 1
6178 15 15 0 -43.622894873847116 -0.14394647594730484 64.78145127321064 0 0 0
6179 15 16 0.46 -42.81459621978649 0.5153820898027774 63.84767446463708 0 0 0
4835 15 16 0.46 -39.99160701140929 -6.086463827740437 67.57392960105173 0 0 0
4834 15 15 0 -41.38057298019704 -5.960027813897452 67.45232585130267 0 0 0
3266 15 16 0.46 -45.33879121146192 -1.3298747694007653 68.02941151489955 1 0 1
2426 15 16 0.46 -39.772647214421255 4.445099670266991 66.02745773629593 0 1 1
2425 15 15 0 -39.8782785559717 3.0503936280704087 65.96714956485451 0 1 1
4469 15 16 0.46 -43.54380145850454 6.457417436466484 64.1945364500217 1 0 1
2427 15 17 -0.46 -40.31595114964625 3.3968219144557477 64.6832375183582 0 1 1
6050 15 16 0.46 -37.31676130152034 -1.9353065833339156 66.77634168873556 0 0 1
6049 15 15 0 -36.411482917713265 -2.9698600671874864 67.04123815314907 0 0 1
4155 15 17 -0.46 -41.182211731033654 1.1249698646384736 62.07712903828381 1 0 0
1687 15 15 0 -32.47753332630881 -6.808090646197402 66.73131253049712 0 0 0
1688 15 16 0.46 -31.66985088677859 -7.174744665269693 65.64816253757067 0 0 0
6051 15 17 -0.46 -37.52905554579727 -3.7714259657449207 66.77946815634388 0 0 1
1689 15 17 -0.46 -31.81255007218605 -6.093007391492449 67.73453394702382 0 0 0
3867 15 17 -0.46 -31.539835024114396 -0.6552328179617276 66.74204693184063 0 0 0
6896 15 16 0.46 -27.97062656144186 -7.056133662706525 67.19320844448104 0 1 0
5860 15 15 0 -25.357765343002136 0.2981062745945874 122.7425711502442 0 0 0
6255 15 17 -0.46 -24.68341060427466 -4.171681527643653 63.12200802331578 0 0 0
6253 15 15 0 -24.513531671383667 -4.205316609118739 123.46345471352865 0 0 -1
3865 15 15 0 -32.11576411346338 0.4689459357401551 67.34580831994639 0 0 0
3866 15 16 0.46 -31.766214115157798 1.3469378800018728 68.37873859082562 0 0 0
5861 15 16 0.46 -24.11356979229395 0.9331410019915893 122.83588956535012 0 0 0
5862 15 17 -0.46 -25.057496951148774 -1.0676562353130747 122.67525354939164 0 0 0
981 15 17 -0.46 -21.478425213675813 -5.655210433169068 64.8820993578994 0 0 1
980 15 16 0.46 -22.183981755643167 -7.088461161665786 66.35437323674232 0 0 1
3546 15 17 -0.46 -23.2133101022805 1.2907571166359963 64.35382077887172 0 0 1
6897 15 17 -0.46 -28.706575321649865 -8.031393913796492 65.63929853491383 0 1 0
979 15 15 0 -22.099739014162296 -6.906792459398616 64.96876880432865 0 0 1
3545 15 16 0.46 -21.29103805302157 -0.39313631364912566 65.07071218604693 0 0 1
3544 15 15 0 -22.46117594101182 0.3749556848246002 65.09920788698918 0 0 1
6895 15 15 0 -27.50954382625321 -7.356041950634013 65.9057855418793 0 1 0
1854 15 17 -0.46 -17.909103799026138 2.2712210653300473 68.37381263487161 0 0 0
4987 15 15 0 -25.904047517306132 3.621218318778641 65.43995071075757 0 0 0
4988 15 16 0.46 -24.548285006703132 3.367647316429296 65.67997104658568 0 0 0
6092 15 16 0.46 -20.531524645076544 -4.6717529122686425 120.68817214792469 0 0 -1
1081 15 15 0 -13.792812683485161 -2.4105725644472065 64.05238659914427 1 1 1
1083 15 17 -0.46 -12.659545979033222 -1.7478380116242553 63.56608474938914 1 1 1
1082 15 16 0.46 -13.48794002123643 -3.491447629028935 63.2164668933238 1 1 1
4179 15 17 -0.46 -18.747112614804994 2.8873211563741914 63.36937314783008 0 0 0
4178 15 16 0.46 -16.67224570279572 2.1635404908051674 64.88504391937238 0 0 0
4177 15 15 0 -17.580868055087297 2.2605546383305866 63.824386728713655 0 0 0
489 15 17 -0.46 -9.22559275999651 -5.961559959311828 66.18020409977942 0 0 0
487 15 15 0 -9.601508925265172 -4.821444230133929 65.45991029807705 0 0 0
6609 15 17 -0.46 -18.288717370466387 -3.1782732469230615 65.25437058830542 0 0 0
6607 15 15 0 -18.821016187701733 -2.9583194110807987 63.9783305108515 0 0 0
1852 15 15 0 -18.19048804302055 0.9190255114871196 68.60270145373347 0 0 0
6854 15 16 0.46 -9.440150697354612 -0.7413682039791955 65.77072735000424 0 0 0
6855 15 17 -0.46 -10.010869464035709 0.3374673231032354 68.27485859269902 0 0 0
6853 15 15 0 -9.591536453992948 -0.15910896098467484 67.03486995534372 0 0 0
1374 15 17 -0.46 -2.6487128435931035 -0.6211904831844414 62.43923600818114 0 0 1
6964 15 15 0 -6.902226578730615 -1.2314463971567917 63.32201423249894 0 0 1
6966 15 17 -0.46 -7.940929856898114 -1.1436208004000066 64.2565634096311 0 0 1
2984 15 16 0.46 -5.909151798191395 2.4390141280780644 122.45418863653737 0 -1 -1
1373 15 16 0.46 -2.101908319239878 0.45314935407147305 64.51060923233307 0 0 1
1372 15 15 0 -2.131684577386692 -0.7133170908358545 63.73700118728955 0 0 1
6965 15 16 0.46 -6.137035834189948 -1.9851306478605553 62.42399242056427 0 0 1
6296 15 16 0.46 0.7845352279795521 -4.172828001261057 67.55016695405318 0 0 1
6297 15 17 -0.46 -1.2453141713307114 -3.909510302946831 68.92823991166544 0 0 1
6295 15 15 0 -0.16848548041153927 -4.6654252881911535 68.44966650507415 0 0 1
3334 15 15 0 -3.7344583522472217 -5.667555185095687 65.41603727585247 0 0 1
3335 15 16 0.46 -2.524858670489224 -6.193418537633618 64.94663729252426 0 0 1
3336 15 17 -0.46 -3.80153147113757 -6.649669739575386 64.4205714559463 0 0 1
6339 15 17 -0.46 2.392356482112612 -3.076770826269047 66.14016091190875 0 0 1
6118 15 15 0 -4.0573761282779435 0.33701575364793407 68.10702582006223 0 0 1
2973 15 17 -0.46 5.843332784581916 -5.658406257069987 62.182778974351045 0 1 0
6119 15 16 0.46 -4.230698660384513 0.5862064531453666 69.47372377321372 0 0 1
6120 15 17 -0.46 -3.498206260304475 1.6125270818375361 67.96419756511715 0 0 1
2200 15 15 0 0.8841285574508743 1.404267612537265 67.40165629740197 0 0 1
2971 15 15 0 5.718649558425978 -6.761694222356259 63.03554492041704 0 1 0
6337 15 15 0 2.5674618995543717 -2.955556824601406 64.7564538408192 0 0 1
6338 15 16 0.46 1.9119454740956752 -3.9513415646509853 64.02248451759196 0 0 1
6754 15 15 0 7.338346661730906 -4.863841669140986 67.15327205508446 0 0 1
6756 15 17 -0.46 6.864674404885358 -5.5303511139199815 68.2896697641277 0 0 1
6755 15 16 0.46 8.678013767484053 -4.48099170941109 67.29008562933319 0 0 1
4865 15 16 0.46 4.328618185269402 -4.43354761543809 121.21710729238416 0 1 0
4866 15 17 -0.46 3.856338379771844 -2.0955624814636837 121.01402882033338 0 1 0
2906 15 16 0.46 4.843580691288558 0.6171241514413064 65.71950246602938 0 0 0
2905 15 15 0 5.778294155702955 0.31003032349023546 66.71549650229507 0 0 0
2907 15 17 -0.46 6.837787219126693 -0.1996103003624395 65.9554038217119 0 0 0
2201 15 16 0.46 1.296611535052573 1.8295483795033105 68.67011759457961 0 0 1
4864 15 15 0 4.563957628436001 -3.122941054778837 121.64945644486119 0 1 0
3119 15 16 0.46 -45.53651180967399 -4.001302801392642 64.2679835717387 0 0 0
3118 15 15 0 -46.79346343525853 -4.3051264079870295 64.80441980002344 0 0 0
3120 15 17 -0.46 16.09505512588308 -5.496519499670495 64.39004379171647 -1 0 0
2816 15 16 0.46 7.867492005606197 0.2637005196815829 64.26391455071673 -1 0 1
2459 15 16 0.46 15.048247108663393 -5.438758805560055 67.94021123348645 0 0 1
2815 15 15 0 8.706293139024691 -0.024764609539033693 63.18077073395018 -1 0 1
5292 15 17 -0.46 13.921725017286093 -2.91194603378762 123.10739168349048 0 0 -1
2869 15 15 0 14.606900256244225 0.6322143792511231 65.29690703558575 0 0 0
1183 15 15 0 7.9474549250437345 0.1178402586006769 71.00128332068937 -1 0 0
2871 15 17 -0.46 14.690444033465745 -0.12657448571456373 66.47047420268429 0 0 0
2870 15 16 0.46 14.83517673944572 1.818954454419284 64.59012712556606 0 0 0
4874 15 16 0.46 11.44200058887031 4.053424120782859 122.5451084445911 -1 0 -1
4873 15 15 0 12.222320759104347 2.901093322562317 122.39268087687796 -1 0 -1
730 15 15 0 -46.85971647336865 6.109616861354873 117.52316086101433 1 1 -1
732 15 17 -0.46 15.967847043277054 6.995437503394482 118.37679371811164 0 1 -1
731 15 16 0.46 -46.29874651646092 6.1952999283075325 116.24332840343035 1 1 -1
6180 15 17 -0.46 -43.79145476604308 -0.9005323670461494 65.94728374493765 0 0 0
1236 15 17 -0.46 -43.40879227939154 3.643981551496046 68.89511188896094 1 0 1
1235 15 16 0.46 -45.90816440168387 3.3994631284572874 69.41524854434644 1 0 1
1234 15 15 0 -44.683192798163205 3.0688481335518167 68.8235236963709 1 0 1