LAMMPS data file via write_data, version 27 Oct 2021, timestep = 30000

7236 atoms
32 atom types
7366 bonds
138 bond types
2655 angles
66 angle types
10 dihedrals
10 dihedral types
51 impropers
17 improper types

-47.1069542017885 16.38891518451802 xlo xhi
-28.275943194048573 45.43784181970262 ylo yhi
61.8805044951155 123.61119912196789 zlo zhi

Masses

1 72
2 72
3 72
4 72
5 72
6 72
7 72
8 72
9 72
10 72
11 45
12 45
13 45
14 45
15 24
16 24
17 24
18 72
19 72
20 72
21 45
22 45
23 45
24 45
25 45
26 45
27 45
28 45
29 45
30 45
31 45
32 45

Atoms # full

3052 15 15 0 -44.13738022569964 -21.900498991041513 62.31504054806323 1 0 0
1857 15 17 -0.46 -47.05246308315368 -17.60499424408279 65.62190896116618 1 0 1
6617 15 16 0.46 -40.196185042357776 -19.531244996088116 64.66578271254143 0 1 0
6616 15 15 0 -40.42409425891335 -20.661886526828788 65.45932358607833 0 1 0
5559 15 17 -0.46 14.56378866295448 -23.09104848470545 64.49740723737949 -1 0 0
3535 15 15 0 -42.21778281934864 -24.88143966457702 66.51757480164967 1 1 1
3537 15 17 -0.46 -42.66453169803581 -23.604544584563687 66.8780666795464 1 1 1
3536 15 16 0.46 -42.031406366871806 -26.250781860474046 66.74155196231135 1 1 1
5557 15 15 0 15.915728318912942 -23.236410601158077 64.83076743558529 -1 0 0
5558 15 16 0.46 -46.39477112621975 -22.83716265009101 64.20188018326535 0 0 0
5406 15 17 -0.46 -45.58118018002587 -24.51257379846034 68.82176852665307 0 0 0
340 15 15 0 -38.1879746048038 -25.04528926159933 64.10323051260221 0 1 0
342 15 17 -0.46 -39.01631694422107 -25.808119851730954 63.271402129167114 0 1 0
5730 15 17 -0.46 -35.861440365857284 -22.33699022418083 121.21290192397447 0 1 -1
4387 15 15 0 -36.009722854175685 -26.565295336744086 69.42874441726724 0 0 0
4388 15 16 0.46 -34.61341264411546 -26.666373412877643 69.43879527826556 0 0 0
5729 15 16 0.46 -34.596464356303514 -22.020275296768805 120.17359728856113 0 1 -1
5728 15 15 0 -34.580910062698436 -21.89638290179255 121.56801786299967 0 1 -1
4389 15 17 -0.46 -35.85623763840552 -25.404035440833663 68.66198647456932 0 0 0
7146 15 17 -0.46 -30.76851448229694 -28.099570095938894 65.83272718852591 1 0 -1
3431 15 16 0.46 -34.846528342766 43.013757008616686 63.363024179457106 0 -1 1
3430 15 15 0 -35.69206812577037 43.95892738546106 62.76996816684703 0 -1 1
6618 15 17 -0.46 -39.879111705180286 -21.647310887278813 64.62749857686147 0 1 0
4190 15 16 0.46 -30.728964251184596 -26.711921132312217 67.55239706571632 1 0 0
4189 15 15 0 -30.724603231051198 -26.381601035509973 68.91286375591939 1 0 0
4191 15 17 -0.46 -31.231661967163944 -26.78130854840342 70.15508971856406 1 0 0
7144 15 15 0 -30.751678036624824 44.39562537502281 65.14370174610652 1 -1 -1
1851 15 17 -0.46 -32.724779203989655 -25.77868238839144 63.510023348670885 0 1 1
1850 15 16 0.46 -32.7886170753151 -23.519417146843743 62.96070121469842 0 1 1
1849 15 15 0 -33.05852622794347 -24.48734024341846 63.93552116137824 0 1 1
4973 15 16 0.46 -23.92520335585248 44.837268294327004 72.78716091717668 -1 0 1
5417 15 16 0.46 -21.190907204093048 -20.68209639475758 69.77170075446833 1 1 1
7145 15 16 0.46 -31.27772354135745 43.67459843410866 64.06509325484261 1 -1 -1
1326 15 17 -0.46 -30.09129338288913 -27.730410553838777 121.47032549606712 -1 1 -2
5903 15 16 0.46 -22.35700171872258 -23.036630869580694 64.41779801557692 1 0 0
5902 15 15 0 -22.370199057747637 -24.165145727157267 65.24621822686566 1 0 0
5904 15 17 -0.46 -21.82426051040939 -25.361271037174962 64.76534886283254 1 0 0
934 15 15 0 -24.426402258848043 44.90438234720244 65.86570942663673 1 0 1
936 15 17 -0.46 -23.51127404836479 43.84488462393968 65.86348843868458 1 0 1
935 15 16 0.46 -24.711210552941367 44.93763000106963 64.49538872360519 1 0 1
4749 15 17 -0.46 -21.68391055340875 -23.449019867325607 71.02837524998452 -1 0 1
6124 15 15 0 -20.279922406953265 -28.032701740898 63.15264517197256 0 0 1
6126 15 17 -0.46 -20.803912786635763 44.76337424700982 64.07092847568978 0 -1 1
4747 15 15 0 -20.77209179750335 -24.502788883839056 70.89362579278483 -1 0 1
4748 15 16 0.46 -20.63692940536042 -25.62423034380978 71.72072928063253 -1 0 1
6125 15 16 0.46 -21.59364109953612 -27.598435707937046 63.36608417818923 0 0 1
6821 15 16 0.46 -16.641813329811523 -23.81941539353607 62.80666635131534 1 0 1
6058 15 15 0 -16.416179982125126 -24.63763912731569 66.71446520663446 0 0 0
6820 15 15 0 -17.745289377724525 -22.957823546987186 62.806347536585356 1 0 1
5607 15 17 -0.46 -18.255499143048493 41.63502056793808 65.48280111871583 0 -1 0
2028 15 17 -0.46 -11.192712047292048 -24.37237477732669 69.62199829715415 0 0 0
2026 15 15 0 -12.304094588959005 -24.564414996786862 70.45142544898106 0 0 0
5605 15 15 0 -17.313569195144613 41.812638931039096 64.46239938884118 0 -1 0
5606 15 16 0.46 -17.057719455617733 42.22499479444028 65.77560293464163 0 -1 0
2831 15 16 0.46 -10.140989274660189 -24.322341422785918 67.26029236963394 0 1 1
6822 15 17 -0.46 -17.511644900333557 -23.69160012660179 63.97552767214788 1 0 1
1696 15 15 0 -7.9513011275147045 -20.917862665059243 69.56210723111423 0 1 0
1697 15 16 0.46 -8.460482354804169 -20.743486629227327 70.85451872746651 0 1 0
1698 15 17 -0.46 -6.931215254494852 -21.276895584589504 68.67299521659697 0 1 0
6153 15 17 -0.46 -6.442150318829276 -20.018251006828887 63.69076807628805 0 0 0
6152 15 16 0.46 -7.925550033950585 -20.69054430163505 61.98729597759968 0 0 0
6151 15 15 0 -6.60935167739753 -20.671815514922905 62.464025585194285 0 0 0
4571 15 16 0.46 -4.025873844170211 -27.159154327780456 66.20656237528496 0 1 0
2879 15 16 0.46 -4.0534731399898725 -17.954115149014818 69.43200077810843 -1 1 1
6010 15 15 0 -7.167480960294433 -25.83092810281236 72.0138018120826 0 0 1
6012 15 17 -0.46 -7.470448648198756 -24.74664331725405 72.84598994219104 0 0 1
2830 15 15 0 -9.031946539432882 -24.917075505769397 66.6468467062069 0 1 1
2832 15 17 -0.46 -8.0123810991516 -25.204645157445583 65.73153801050971 0 1 1
3461 15 16 0.46 -5.70124874893426 -22.483245204516933 67.4301503160777 0 1 1
2880 15 17 -0.46 -3.104609475299664 -16.423045407999453 68.47410725650401 -1 1 1
2878 15 15 0 -3.043399812505006 -17.821704579213286 68.47167827284757 -1 1 1
1521 15 17 -0.46 -1.2696635772045024 45.42348329369353 71.4938450717375 -1 -1 0
3462 15 17 -0.46 -3.195196096438093 -22.661149608830375 67.51988335570516 0 1 1
3460 15 15 0 -4.447856649859575 -22.845693825304455 66.92256855589866 0 1 1
4871 15 16 0.46 -0.022282341831199544 -26.85041463213635 64.05016610619988 -1 1 0
2897 15 16 0.46 -1.6817520764683154 -21.491436568445717 64.34443929692398 -1 1 0
2898 15 17 -0.46 0.8053265234452516 -21.308579686355145 63.34129530851971 -1 1 0
2896 15 15 0 -0.39937281547093617 -21.789271252229778 63.86820623202895 -1 1 0
1520 15 16 0.46 -2.0007047049453073 -26.199016485764506 73.11400502387977 -1 0 0
4295 15 16 0.46 -0.3123771474551662 -22.697666823619794 120.35208371568477 0 0 -1
2585 15 16 0.46 7.133302823936407 -19.632753405932934 68.3309973767285 0 0 0
2584 15 15 0 6.514382529088812 -19.21764921781057 67.1458281138666 0 0 0
2586 15 17 -0.46 7.468799024962468 -19.007165195889066 66.14343815535648 0 0 0
5631 15 17 -0.46 -0.547317087135836 -26.364502459371668 66.68737420980442 -2 1 0
4872 15 17 -0.46 1.029964647030422 -28.249621101079967 62.84088774893776 -1 1 0
5630 15 16 0.46 1.40629498836678 -26.25894840500225 68.65555989276157 -2 1 0
5629 15 15 0 0.3540701315134158 -26.155134948037258 67.73792945692539 -2 1 0
3591 15 17 -0.46 3.2998519250165734 -24.681547432881352 122.39662248395653 -1 0 -2
2640 15 17 -0.46 7.7629920759629725 -25.06403307296491 64.22031096321192 -1 1 0
5927 15 16 0.46 9.500525996307077 -24.11136686249509 71.45398087306627 -1 1 0
3590 15 16 0.46 3.2685932680473715 -26.999705310914045 123.15309041287479 -1 0 -2
3589 15 15 0 3.6688251604249174 -25.66838068638388 123.31858716946998 -1 0 -2
2696 15 16 0.46 13.052065533865111 -22.603439996091172 63.24705569625995 -1 0 0
6904 15 15 0 4.953226764838509 -24.321159448597776 66.5514210469043 -1 0 1
2697 15 17 -0.46 12.62085574633183 -21.597689638872637 123.1938090529289 -1 0 -1
2695 15 15 0 11.963263800600304 -22.419251049033022 62.3864830860629 -1 0 0
2863 15 15 0 12.342059908640572 -26.015507025879153 66.67806304092107 0 1 1
2864 15 16 0.46 12.928008000845097 -25.11777571498853 65.77765017634772 0 1 1
6905 15 16 0.46 6.237178244461504 -24.498421754120105 66.02222668467482 -1 0 1
2865 15 17 -0.46 12.642244153913223 -26.556756380956713 67.93382518182166 0 1 1
5926 15 15 0 8.565794421504679 -24.07798434705725 70.41226954513974 -1 1 0
5928 15 17 -0.46 8.628697962420272 -25.15275412046925 71.3072070170897 -1 1 0
1855 15 15 0 -46.13610316466604 -18.511929668611526 66.16757610835882 1 0 1
1856 15 16 0.46 -44.73996129147555 -18.408357201121174 66.17536160144753 1 0 1
2290 15 15 0 15.345825403759534 -20.215001097930113 122.05731920496456 -1 0 0
2292 15 17 -0.46 -46.89591733273881 -19.945581377117538 122.61819295214688 0 0 0
2291 15 16 0.46 14.121972450192775 -20.547062388181743 122.65054702592576 -1 0 0
4342 15 15 0 -41.1703157876205 -16.103436957916877 65.7153569485034 0 -1 1
4344 15 17 -0.46 -41.89479042485328 -17.09020185126138 65.03606942081774 0 -1 1
4343 15 16 0.46 -41.834896548321375 -15.849969975914178 66.92121220579628 0 -1 1
4802 15 16 0.46 -40.785017459139496 -22.2004150318687 122.64104366309813 0 1 -1
3933 15 17 -0.46 15.679059567600914 -12.654814900322513 69.64161592783171 0 0 1
3932 15 16 0.46 -46.45378266667846 -14.137680214464071 69.16023061559193 1 0 1
3693 15 17 -0.46 -41.866999776636696 -18.069068586991733 72.86204863026215 0 0 0
2760 15 17 -0.46 -34.7544083456931 -20.620398998392453 68.54271720044147 0 1 0
2759 15 16 0.46 -33.48656421267873 -21.639067760362057 66.98996525965069 0 1 0
2758 15 15 0 -34.679013866525025 -20.93046754447806 67.17956894392668 0 1 0
2602 15 15 0 -32.029685081687084 -24.275489294594728 76.91468154566978 0 1 0
731 15 16 0.46 -32.6023919228333 -18.665055782335656 62.94597436375577 0 2 1
730 15 15 0 -31.786874723180073 -19.802868848569798 62.963669656255135 0 2 1
6178 15 15 0 -30.054625004855826 -21.60927764929486 67.20809266060965 0 0 0
6179 15 16 0.46 -29.09840007442088 -22.376291540861267 67.88434969204437 0 0 0
732 15 17 -0.46 -31.82777955565843 -20.982090632473074 62.210169305194896 0 2 1
2973 15 17 -0.46 -25.305067628916287 -18.971234958021245 65.35191164110655 0 2 0
2971 15 15 0 -25.57739839642692 -19.579465298908787 66.58312722153546 0 2 0
2972 15 16 0.46 -24.701324642262865 -19.81669148880469 67.64906273182321 0 2 0
5416 15 15 0 -21.74400833432793 -20.36435205817105 68.5254593347184 1 1 1
5418 15 17 -0.46 -23.051148837302357 -20.15418596635551 68.07025177839404 1 1 1
6180 15 17 -0.46 -31.406692356336706 -21.610053369662253 67.57129133257716 0 0 0
5146 15 15 0 -30.734599335892607 -16.508351604839515 66.51007433226995 1 0 1
3796 15 15 0 -26.34696047921942 -16.13152440323158 63.507777219663495 1 1 1
3798 15 17 -0.46 -25.42238568069905 -15.092702969995283 63.34649649610885 1 1 1
3797 15 16 0.46 -25.657902533811807 -16.98208487742882 64.38055784937768 1 1 1
5658 15 17 -0.46 -18.56596869242985 -12.43411496421381 66.22986551868517 0 1 1
3785 15 16 0.46 -16.84239639300087 -19.078372372098716 66.51725830256086 1 0 1
2674 15 15 0 -17.77919151598563 -6.819000536140135 66.94623975190177 1 1 0
3784 15 15 0 -17.869243166846303 -19.027291419065143 65.56700757813044 1 0 1
2676 15 17 -0.46 -18.797140523256232 -6.870016186226203 65.98645997401329 1 1 0
2158 15 15 0 -25.60460390215776 -14.634602561431908 68.35995875747736 0 0 0
2159 15 16 0.46 -26.10119954459126 -15.08343626757419 69.5895688876189 0 0 0
3383 15 16 0.46 -23.847692743210086 -20.23958980398055 123.36462104709805 1 0 0
3382 15 15 0 -22.820872067207894 -20.71898788767236 62.45600718068655 1 0 1
3384 15 17 -0.46 -22.115489281858814 -21.883971964933266 62.78042546910753 1 0 1
6059 15 16 0.46 -16.340039496603165 -23.971538619905743 65.4854360204502 0 0 0
6060 15 17 -0.46 -16.95654823966767 -25.518054786203 67.65938341146833 0 0 0
6511 15 15 0 -12.98751837659537 -23.01765312500636 123.52114443614786 0 1 1
6512 15 16 0.46 -12.830478410318257 -21.667341477531902 62.12510919387421 0 1 2
6513 15 17 -0.46 -12.78058015148708 -22.66541506515156 63.12951848571923 0 1 2
2675 15 16 0.46 -16.73459464595646 -7.7268350432864095 66.73492508899271 1 1 0
3786 15 17 -0.46 -16.510493709363942 -18.69025040637139 65.58126477120085 1 0 1
2098 15 15 0 -16.831495242675246 -20.1068928624857 70.11445254283699 0 1 1
2100 15 17 -0.46 -17.924454145852568 -20.49455637371597 69.33013255837525 0 1 1
3894 15 17 -0.46 -15.901033748821895 -15.245926398878929 69.5792478807089 0 1 1
6140 15 16 0.46 -9.879394984554533 -7.508791631060608 65.95526097198704 0 1 0
5207 15 16 0.46 -10.991632679481233 -17.270737665551657 65.2474134800856 0 1 0
5208 15 17 -0.46 -12.248182346953717 -15.287008701935067 64.8535083976173 0 1 0
5206 15 15 0 -11.795271181296838 -16.52346826736993 64.37807257748126 0 1 0
3575 15 16 0.46 -6.586210913386913 -18.341786532041706 65.78926988578621 0 1 0
3576 15 17 -0.46 -8.932374049197856 -17.38581586228812 65.57178668582539 0 1 0
3574 15 15 0 -7.683991438120265 -17.565490596260712 66.17945258607926 0 1 0
4304 15 16 0.46 -5.940342422099478 -15.498633449266308 118.36061112114595 -2 0 0
2510 15 16 0.46 -11.616189135599074 -20.619368121275794 65.69861051922784 0 0 0
2511 15 17 -0.46 -11.561188573728455 -21.42323133326413 66.10747268454986 0 0 0
2509 15 15 0 -12.792381353657806 -20.83774258619841 66.42585494804658 0 0 0
3821 15 16 0.46 -9.612418791279957 -12.240693269615958 71.0172207752653 -1 0 0
2134 15 15 0 -8.751747382026611 -11.53999677810164 65.41398813023952 -1 0 1
2136 15 17 -0.46 -9.11719146181337 -10.192717244456228 65.30774085842023 -1 0 1
1156 15 15 0 -2.8418331898669495 -17.40738364291944 123.46355685303764 0 1 -1
1158 15 17 -0.46 -3.11354184483389 -16.740145663183807 62.93326544394781 0 1 0
2847 15 17 -0.46 1.6510578364287163 -16.48916858510318 66.34152578756554 0 1 0
7096 15 15 0 -7.886503404492932 -13.96570538958131 123.41533437917865 0 1 -1
2845 15 15 0 1.7180418235468906 -17.12485341263609 65.09596649732111 0 1 0
2846 15 16 0.46 1.6292665977092935 -15.925448096455264 64.37934536534503 0 1 0
7098 15 17 -0.46 -7.951185012418216 -13.50331172242025 63.004491405416694 0 1 0
7097 15 16 0.46 -8.36332710493053 -15.108891459856014 122.76282785244423 0 1 -1
1157 15 16 0.46 -4.197152190048122 -17.167771810142447 61.989175661926595 0 1 0
6525 15 17 -0.46 4.566686767975916 -19.12404395702632 123.55444690877137 -1 1 -1
5677 15 15 0 8.724374762663798 -18.41868522927662 63.22988515838384 0 0 0
5678 15 16 0.46 8.177080466597133 -18.044178881539846 64.46285472370107 0 0 0
5679 15 17 -0.46 8.809708510555556 -17.343455195931778 62.33736147418031 0 0 0
2903 15 16 0.46 5.979340077165629 -12.814072955061533 66.68056112085668 0 1 0
2902 15 15 0 6.632690174399995 -13.897701048744944 66.08149200545853 0 1 0
2904 15 17 -0.46 7.76763114821696 -14.541003421917509 66.58949893712582 0 1 0
6624 15 17 -0.46 1.2388158712033777 -17.379754211857453 119.08255601277428 -1 1 -1
6623 15 16 0.46 1.7114762641735155 -18.533395138636653 119.03252833488033 -1 1 -1
6906 15 17 -0.46 4.644952245198758 -22.95630472019072 66.50517830814644 -1 0 1
3862 15 15 0 11.899680148259357 -21.021124080220414 67.51564531605744 0 1 1
1020 15 17 -0.46 13.586104396819781 -15.68866008990302 63.150088075240426 -1 0 0
1877 15 16 0.46 10.706841229725072 -16.829881034129205 120.59603895468216 -1 1 -1
1878 15 17 -0.46 11.7930959759094 -16.99496599839871 121.06978448898333 -1 1 -1
1876 15 15 0 11.307113317462838 -15.683411105337376 121.13015516213052 -1 1 -1
3863 15 16 0.46 10.816546363704546 -20.318332114772687 68.0568519845847 0 1 1
3864 15 17 -0.46 11.585291973088639 -21.543998586663104 66.2555809026939 0 1 1
1018 15 15 0 13.677081171408977 -16.58003781294693 64.22580596641134 -1 0 0
3296 15 16 0.46 5.691963434161913 -13.791237832460126 70.4762329215199 -1 0 0
1319 15 16 0.46 -39.31477384636417 -11.494095093564708 62.24957441710566 1 0 1
1318 15 15 0 -38.64619817805551 -12.63389272511322 123.51781046758234 1 0 0
1320 15 17 -0.46 -39.49176843968235 -12.706521231020838 122.40437612610438 1 0 0
3463 15 15 0 -38.29642351196581 -10.379019081848742 66.48133182689584 0 0 0
5868 15 17 -0.46 -38.05074061393165 -16.935110465761273 123.51336161796497 0 0 -1
3959 15 16 0.46 -36.118965294062335 -15.623298295956143 62.51789366793824 0 0 1
5624 15 16 0.46 -41.90874603468435 -7.330542497069762 62.90744957963309 0 1 0
5623 15 15 0 -41.66744910857766 -8.157130703837531 123.53427477132391 0 1 -1
3960 15 17 -0.46 -33.94076481202632 -17.210561984354708 62.538830718742766 0 0 1
484 15 15 0 -33.4606755598415 -12.129369200571457 64.49548205201405 -1 0 0
3958 15 15 0 -34.81148604699708 -16.118357521454286 62.44431118535661 0 0 1
3338 15 16 0.46 -33.69794577306662 -8.561662972899299 68.89573121375896 -1 0 1
3339 15 17 -0.46 -33.45905480972594 -9.621974699285246 67.28007005410943 -1 0 1
1764 15 17 -0.46 -35.90229954727099 -12.982799127225363 67.89368115807973 0 0 -1
1763 15 16 0.46 -35.91611964808355 -14.977233404625073 69.13175595827609 0 0 -1
1762 15 15 0 -35.96399631342085 -14.381162940300392 67.86589347503546 0 0 -1
485 15 16 0.46 -33.33945556099363 -11.385484154642132 65.67528743864447 -1 0 0
487 15 15 0 -35.63792400074315 -8.31222048073225 62.0949220986011 1 0 0
5148 15 17 -0.46 -29.371285994458646 -16.57356168365892 66.82172217629993 1 0 1
2828 15 16 0.46 -29.226494771391852 -13.23067646747646 65.93571734161144 0 0 0
2827 15 15 0 -28.753598536290536 -11.91315642418645 65.91313225015234 0 0 0
2829 15 17 -0.46 -30.09358067908905 -11.95662143013908 66.31631787767232 0 0 0
1398 15 17 -0.46 -30.68232145267156 -7.059759516822515 71.60802973378301 -1 0 1
5147 15 16 0.46 -31.03506034042646 -16.44178380170003 67.87583123316399 1 0 1
646 15 15 0 -28.582578856717777 -1.9261369455778523 122.40964484226102 0 1 -1
6806 15 16 0.46 -20.95941776069311 -7.206478653231151 67.05118890828024 0 1 1
6807 15 17 -0.46 -21.451106093550013 -6.562780352855603 68.49889687051751 0 1 1
6805 15 15 0 -22.246448823668324 -7.279998594189301 67.59721625303361 0 1 1
4163 15 16 0.46 -24.652672136872514 -7.655593750275844 122.87392514014542 0 1 -1
4162 15 15 0 -25.09944770964424 -6.336721061934256 123.01872299759906 0 1 -1
3812 15 16 0.46 -24.171610691878552 -12.57529646711597 64.65873847705896 0 0 1
1672 15 15 0 -20.41472388373981 -7.209977408108144 62.678670398796584 -1 1 1
1673 15 16 0.46 -20.998617099539906 -6.237749130039687 123.58848690566606 -1 1 0
2160 15 17 -0.46 -25.091306596030265 -13.803591882936393 69.36292791340823 0 0 0
3811 15 15 0 -23.56391617546456 -11.387803125257712 65.08367016305408 0 0 1
6341 15 16 0.46 -13.486285338391097 -13.451517611889345 64.92422872519208 0 0 0
4866 15 17 -0.46 -11.810211320454751 -2.7114067738168224 64.69575299889338 0 2 1
1674 15 17 -0.46 -20.00868337760096 -5.870647202441587 62.715080666081036 -1 1 1
4864 15 15 0 -12.375602433738218 -3.943427559829203 64.34581347289851 0 2 1
4865 15 16 0.46 -13.42523151027193 -4.0652498157747345 63.427424590315894 0 2 1
6698 15 16 0.46 -10.139761530663206 0.5351352382343338 63.58598431838558 0 0 1
6139 15 15 0 -10.96466306198892 -7.65673993524812 66.82721538558354 0 1 0
6141 15 17 -0.46 -10.291805159210284 -6.6703651886060085 67.55819219907141 0 1 0
2709 15 17 -0.46 -4.348666911823537 -7.9826099236961765 68.15424675487195 -1 0 1
1310 15 16 0.46 -9.193129757492688 -9.020082661918448 71.36376301881099 0 1 0
1309 15 15 0 -9.137784925905557 -7.6242621623919025 71.4566181894698 0 1 0
1311 15 17 -0.46 -9.06933559956089 -7.538029738985011 72.85228242519281 0 1 0
2708 15 16 0.46 -5.883066027840439 -7.634062821929353 67.21108448232711 -1 0 1
6239 15 16 0.46 -7.556488122554964 -4.0387904535303125 63.182236203333396 -1 1 0
6240 15 17 -0.46 -6.6683082108016505 -5.702499618743333 64.86028803796522 -1 1 0
6238 15 15 0 -7.1822987139505345 -4.4623165051817235 64.4630984012537 -1 1 0
2707 15 15 0 -5.602715281159191 -8.604440563635725 68.18050208957207 -1 0 1
2135 15 16 0.46 -8.986378663360748 -12.176598126463423 64.18937109414883 -1 0 1
3699 15 17 -0.46 -11.316348134225027 -9.469955311203663 62.05739198876586 0 0 1
6376 15 15 0 1.0975820603575488 -13.559733674771339 61.96750666367166 0 1 0
6377 15 16 0.46 1.03028805445531 -14.170609430013402 122.44030529783343 0 1 -1
6378 15 17 -0.46 1.0176872581284675 -14.323749416671541 63.13793255483499 0 1 0
5042 15 16 0.46 -4.765948205708314 -9.87378044286759 63.951439210206146 -1 1 -1
5041 15 15 0 -5.444508217199028 -9.033389763434277 63.060765410924176 -1 1 -1
5043 15 17 -0.46 -5.87983761350644 -9.615338006307548 123.59487132007631 -1 1 -2
4212 15 17 -0.46 2.6479327586847656 -5.579716491304327 67.47680365207925 -1 0 1
3159 15 17 -0.46 -1.5181463326784526 -11.767279011515903 65.90037759439437 -1 1 0
5353 15 15 0 1.9138824200894182 -11.60923710009179 66.76087216532255 -1 0 1
3158 15 16 0.46 -2.203736155638963 -12.206150141062196 64.29171161717188 -1 1 0
7088 15 16 0.46 10.662516204568927 -13.947147253757478 63.23817670703994 0 1 0
7087 15 15 0 10.497834468308252 -12.557711257279173 63.286628099516975 0 1 0
7089 15 17 -0.46 11.73405147635292 -12.396242319656611 62.64968595834221 0 1 0
2834 15 16 0.46 8.766347511371533 -9.119238449276644 67.88953013131683 -1 0 0
2833 15 15 0 7.529359299662141 -9.191090253791625 67.23784195259948 -1 0 0
2835 15 17 -0.46 6.754671683473122 -10.205215731970474 66.66216095427497 -1 0 0
6436 15 15 0 -44.264023476640254 -8.150177843300941 65.98547352346516 1 0 -1
6438 15 17 -0.46 -45.49524464042315 -8.462553509470531 65.39681752116994 1 0 -1
2611 15 15 0 11.75374001819294 -10.90878265669211 68.31653506176352 -1 1 0
2612 15 16 0.46 12.970592058699461 -10.534222103006686 67.73431903386745 -1 1 0
1909 15 15 0 -46.62561672135842 -9.088452144420526 71.09410424357205 0 0 0
1911 15 17 -0.46 -45.47083083566407 -8.326284205498359 70.88063389181248 0 0 0
1910 15 16 0.46 16.354265858642393 -10.018070736802423 72.004909869607 -1 0 0
2613 15 17 -0.46 11.276606999492618 -11.793517464903054 67.3420667956786 -1 1 0
5854 15 15 0 -44.434126686980086 -16.901688392846538 123.56712925437594 1 0 -1
5855 15 16 0.46 -45.37823348643352 -17.38178158015873 122.65161143219925 1 0 -1
3827 15 16 0.46 -42.98623188900508 -13.405053714683998 64.2755134632061 1 -1 0
3826 15 15 0 -43.61322279086764 -12.215248068781516 63.886611246649565 1 -1 0
3828 15 17 -0.46 -43.20572511374814 -11.32251170350186 64.88509380802702 1 -1 0
795 15 17 -0.46 16.018497986866183 -9.642271551634584 120.29141825200003 0 1 0
2391 15 17 -0.46 -43.71776877904054 -2.934256867030723 64.9814582869544 0 0 1
2390 15 16 0.46 -44.957574160971674 -3.859038149525112 67.03759026009753 0 0 1
2389 15 15 0 -43.93614203414921 -3.2061025853129883 66.33733919135008 0 0 1
3454 15 15 0 -39.6376580084456 -1.8339704192940642 68.35681736253969 0 0 1
3456 15 17 -0.46 -38.940967509759574 -2.7584487154249424 69.14419416498156 0 0 1
3455 15 16 0.46 -39.69706553679356 -3.0973474827536247 68.95710824294675 0 0 1
1469 15 16 0.46 -37.79132138490046 -5.1152854137992385 64.8690818345577 0 1 0
1468 15 15 0 -39.130970558251505 -5.429630315791221 65.12701084597698 0 1 0
1470 15 17 -0.46 -39.991876511673155 -5.413053257818893 64.02312401277702 0 1 0
3337 15 15 0 -33.06287885670756 -9.777079299281692 68.61385683516194 -1 0 1
7079 15 16 0.46 -36.6025930001688 -1.1081827086056664 64.43781047132092 0 0 0
7080 15 17 -0.46 -35.846632496815474 -2.6995262105982474 65.43356606130217 0 0 0
7078 15 15 0 -35.33136576517727 -1.5489594909174953 64.8247176246103 0 0 0
3068 15 16 0.46 -35.23701211139843 -4.311299365868598 66.73053842104649 1 1 0
7100 15 16 0.46 -32.44384381290115 -7.329272114071753 63.28249661325744 0 0 0
488 15 16 0.46 -36.064817122697704 -8.741449888896016 122.56326797110891 1 0 -1
489 15 17 -0.46 -34.708727144403994 -7.494820992731759 62.74948399726765 1 0 0
2007 15 17 -0.46 -31.658586442443468 -3.309456652033233 122.50751710284446 0 0 -1
7224 15 17 -0.46 -26.22982429581002 -5.209279802735951 67.72418081415076 -1 0 0
7223 15 16 0.46 -25.946034908853683 -5.194684186976832 65.24771564952381 -1 0 0
7222 15 15 0 -26.636318730213034 -5.520844312409676 66.42122654361353 -1 0 0
7099 15 15 0 -31.09095880763283 -7.5070033447000775 63.595727793345766 0 0 0
647 15 16 0.46 -29.691866007562883 -2.5250218929006927 123.01859380304538 0 1 -1
7101 15 17 -0.46 -31.510035885761855 -7.8885091458124625 62.315560723661314 0 0 0
5895 15 17 -0.46 -23.61401949864598 2.9864391790123332 122.31316206275442 1 1 0
2616 15 17 -0.46 -27.288329691194413 2.254822602745695 63.98688168295489 0 0 1
2041 15 15 0 -30.394994030691993 -0.3699580817868665 118.35248971435392 0 0 0
2043 15 17 -0.46 -29.527218510145275 0.7282920457618303 118.38099064906366 0 0 0
2614 15 15 0 -27.157909877425205 1.0049004596634064 64.60387869138393 0 0 1
2615 15 16 0.46 -27.866075393836148 0.7356786283597012 65.78117271027634 0 0 1
6002 15 16 0.46 -19.059981861345836 -2.475457072383752 70.03504514534345 1 1 1
6001 15 15 0 -19.93760158390953 -2.2215120869618037 68.97424565111918 1 1 1
501 15 17 -0.46 -19.95105853571507 2.4999984047795154 63.716350450227374 -1 1 1
499 15 15 0 -20.533075767367674 1.3823050821420155 64.32628288795394 -1 1 1
500 15 16 0.46 -19.281932898033617 1.4131349789002527 64.95373092403389 -1 1 1
5894 15 16 0.46 -25.023486784208753 1.8361548322084154 121.15376546283656 1 1 0
5893 15 15 0 -24.34501962818499 1.7941813696576507 122.37766110652508 1 1 0
5739 15 17 -0.46 -24.492983407500613 -3.668620308025772 64.24634519316366 0 1 1
5737 15 15 0 -23.471892237334767 -2.791334030273938 64.63071690008162 0 1 1
5738 15 16 0.46 -22.62276612947892 -2.3369239236307613 65.64683515498055 0 1 1
4933 15 15 0 -9.40016843491597 -3.4102828101294973 121.75299033135109 -1 0 -1
6399 15 17 -0.46 -16.372763147462777 4.231299447800964 123.3021109153064 0 -1 -1
4478 15 16 0.46 -14.720311355304078 0.4299800852568677 65.63770907261758 0 1 1
4479 15 17 -0.46 -16.65468937325542 -0.6368807921026034 65.8064245691803 0 1 1
4477 15 15 0 -15.69204224562876 0.038297075128059896 66.56632282244986 0 1 1
6397 15 15 0 -17.65867948214263 4.38755579907533 62.10245596012679 0 -1 0
3973 15 15 0 -18.50247685595625 -3.0915138779548297 64.04916743648587 0 1 1
3975 15 17 -0.46 -18.452861068179306 -2.8126311918654463 62.67812304588327 0 1 1
3974 15 16 0.46 -18.57877880794697 -4.4645689947643685 63.78668380209022 0 1 1
5672 15 16 0.46 -3.6818213238836885 0.23503023902666798 63.738820986889856 -1 1 0
6697 15 15 0 -9.436040605342907 0.11203320508794047 64.7198985694706 0 0 1
6699 15 17 -0.46 -8.64315225890638 1.1047534185405756 65.30797564595609 0 0 1
5671 15 15 0 -4.151098635129711 -0.6641960945754996 64.70379290674414 -1 1 0
2500 15 15 0 -7.949720511786857 4.651066364050046 63.87670564581231 0 1 0
2501 15 16 0.46 -7.701924099750332 3.7559265478528556 62.82917443021922 0 1 0
5673 15 17 -0.46 -4.478984315842213 0.4580179001380537 65.47394012023992 -1 1 0
2502 15 17 -0.46 -6.897226320918314 5.535218521899301 64.14228226368722 0 1 0
817 15 15 0 -6.426700009818623 1.5896840926279532 67.9841293333394 0 0 1
818 15 16 0.46 -5.707622910687666 1.375786749171822 66.80210731494554 0 0 1
5085 15 17 -0.46 -2.6623858858460245 -5.472753766179472 122.53906591792585 0 1 0
5084 15 16 0.46 -1.414733231847133 -3.4480470087145867 122.10034422567294 0 1 0
3971 15 16 0.46 -4.695280404979763 4.590368941217435 63.29774395951138 -1 0 1
6118 15 15 0 1.5620109958677504 -1.6030981700325915 66.98849423845536 0 0 1
6120 15 17 -0.46 0.5621363499977634 -0.7097238390520257 67.3911516577232 0 0 1
2817 15 17 -0.46 -1.3396813987378042 -6.589121625961983 65.5837423886712 -1 0 2
5354 15 16 0.46 0.6484472372035986 -12.129100678002713 66.4635244592996 -1 0 1
2816 15 16 0.46 -1.7606267372894642 -5.986202157342716 67.4923451293732 -1 0 2
2815 15 15 0 -2.235988963043536 -5.710963215584954 66.20460514037444 -1 0 2
6659 15 16 0.46 0.7629374594030642 4.263435680264574 65.54702431449469 -1 1 1
6660 15 17 -0.46 1.5497874827222138 6.786586760641791 64.88082396130218 -1 1 1
5083 15 15 0 -1.8976480238744782 -4.398031847647422 123.00826608874209 0 1 0
5355 15 17 -0.46 2.2800855416641794 -11.395613353646818 65.42660826012842 -1 0 1
6658 15 15 0 1.1376143601093844 5.448823188334378 64.90322801457583 -1 1 1
4525 15 15 0 9.11641039108433 -3.366348528685156 65.35594247005685 0 0 1
4526 15 16 0.46 10.04147006339767 -3.498466636007174 64.31344095524874 0 0 1
4527 15 17 -0.46 8.913208186329198 -3.89544988924253 64.07580161287004 0 0 1
4210 15 15 0 2.6589541287944507 -6.449462661610144 68.57380872437349 -1 0 1
2483 15 16 0.46 5.006672253909462 -3.656664793601033 62.517910037137185 -1 0 0
2482 15 15 0 4.856637906203457 -4.589385120975495 63.55111983452149 -1 0 0
2484 15 17 -0.46 4.231947426945316 -4.495361137236455 62.30175147586736 -1 0 0
5774 15 16 0.46 15.736377163279794 -8.792208663554357 64.69530270193277 0 1 1
6227 15 16 0.46 9.332168260655179 2.7359643626306935 68.28662730573488 -1 1 0
5773 15 15 0 14.635095733834927 -9.652914817353818 64.77507819924897 0 1 1
5775 15 17 -0.46 13.643058383804055 -9.823687873618644 65.7480625050828 0 1 1
6228 15 17 -0.46 10.723611014743188 1.5897359058202778 68.00521998702652 -1 1 0
6226 15 15 0 9.483971130808598 1.6947490784248869 67.36314118209819 -1 1 0
2777 15 16 0.46 -45.37856465924042 -6.2176765877169045 62.60590607408065 0 0 1
4473 15 17 -0.46 -45.758478928404976 4.544549238182197 70.75763676225971 1 0 0
4233 15 17 -0.46 -47.06259441795241 -1.3741636487919822 64.64045939794819 1 0 0
4154 15 16 0.46 -45.54146316137093 8.844594922617814 65.19244967805055 1 0 0
535 15 15 0 -42.945030359023335 2.214612044484933 67.55735863428337 0 0 0
536 15 16 0.46 -42.93717995571923 1.924316681697252 66.1878087178814 0 0 0
537 15 17 -0.46 -42.48832511867807 3.457386341097222 68.01225683291942 0 0 0
2576 15 16 0.46 -44.58978946953856 11.250666867332097 62.220623358313894 0 0 1
2575 15 15 0 -45.495057198012795 10.194545595152679 62.0621992495639 0 0 1
4472 15 16 0.46 -46.9106315278426 5.660400973272227 69.2348659002788 1 0 0