LAMMPS (27 Oct 2021)
  using 12 OpenMP thread(s) per MPI task
package omp 0
using multi-threaded neighbor list subroutines
package omp 12
using multi-threaded neighbor list subroutines
# Basin-Hopping +STUN code for finding the NP structure with the global minimal energy by LAMMPS
# Author: Prof. Shin-Pon Ju at NSYSU (FEB. 20 2017)
# It should be noted that " Don't try to rename any file of this code. Otherwise the "jump" command may not
# find the corresponding label to jump to.
#The car file output script is in MC_keep.in and you need to modify them as your own atom style for materials studio
#watch out shake bond type in MD.in

variable FoldName index STUN_BH_out #rm in sbatch file

shell mkdir ${FoldName}
shell mkdir STUN_BH_out
print "1"
1
include BH_para.in # claim required parameters
#var = cluster change
variable rand equal random(1,100000,23456)
variable seed equal round(v_rand) #modify this
variable  MC_rn equal random(0.0,1.0,${seed}) ## random number for MC evaluation
variable  MC_rn equal random(0.0,1.0,73113) 
variable rand_Dr equal random(-1,1,${seed}) ## prefact value for random atomic movement
variable rand_Dr equal random(-1,1,96191) 
variable rand_Dr_axial equal random(0,0.5,${seed}) ## for axial move of NW
variable rand_Dr_axial equal random(0,0.5,31079) 
variable seed1 equal ceil(v_MC_rn*${seed})
variable seed1 equal ceil(v_MC_rn*27332)
#variable  MC_rn1 equal random(-1.0,1.0,${seed}1)
variable bhloop equal 1000 #BH loop number
variable opt_step1 equal 20000 #system_opt.in
variable opt_step2 equal 20000 #system_opt.in
variable adjust_increment equal 0.5/${bhloop}
variable adjust_increment equal 0.5/1000
variable BB_ratio equal -0.1
variable BB_length equal 1 # for constructing BB box cell lengths
variable BB_length_basis equal 1
variable opt_No1 equal 1
variable changebox equal 0.2
variable ubound equal 25 ###get this from OVITO ##########>??????????
variable lbound equal 0  ###get this from OVITO

variable Rangle_Big equal random(-180.0,180.0,${seed})
variable Rangle_Big equal random(-180.0,180.0,94036)
variable Rangle1 equal random(-2.5,2.5,${seed})
variable Rangle1 equal random(-2.5,2.5,60382)
variable Rangle2 equal random(-2.5,2.5,${seed})
variable Rangle2 equal random(-2.5,2.5,71336)
variable timesize equal 10					#timestep=10
variable fire_timesize equal ${timesize}*5
variable fire_timesize equal 10*5
variable fire_step equal 1000
variable Tdamp equal ${timesize}*100
variable Tdamp equal 10*100
variable Pdamp equal ${timesize}*1000
variable Pdamp equal 10*1000
variable Ann_T equal 400 # the starting temperature for annealing
variable MD_step equal 5000 # step for MD
variable DMDAnn_T equal 350 # the starting temperature for annealing
variable DMD_step equal 5000 # step for MD

variable Eq_step equal 30000 # step for equilibrium

#STUN Boltzmann factor setting
variable kT equal 1 #0.000625         # initial kT in Boltzmann factor
variable kT_inc equal 2 # multiple factor of KT for increasing KT
variable kT_dec equal 0.5 # multiple factor of KT for decreasing KT
variable kT_adj equal 20 # KT adjusting frequency (How many loops to invoke KT adjusting_
variable desired_ratio equal 0.8
variable desired_upper equal 0.6
variable desired_lower equal 0.3
variable iniT equal 600
variable Tincr equal (${iniT}-300)/(${bhloop}-1)
variable Tincr equal (600-300)/(${bhloop}-1)
variable Tincr equal (600-300)/(1000-1)
print "2"
2
variable material_1 index DNA  				#Change     material
variable material_2 index Cancer_Cell 		#Non-change material

units           real
atom_style      full
boundary		p p p
#box tilt 		large
special_bonds 	lj/coul 0 1 1
dielectric      2.5
neighbor        2.0 bin				#1.2 bin
neigh_modify    every 5 delay 10 one 5000 check yes
read_data      After_NVT.data # 00IniBigloop_1.data 		#00IniBigloop_.data
Reading data file ...
  orthogonal box = (-47.106954 -28.275943 61.880504) to (16.388915 45.437842 123.61120)
  1 by 1 by 1 MPI processor grid
  reading atoms ...
  7236 atoms
  reading velocities ...
  7236 velocities
  scanning bonds ...
  6 = max bonds/atom
  scanning angles ...
  3 = max angles/atom
  scanning dihedrals ...
  1 = max dihedrals/atom
  scanning impropers ...
  3 = max impropers/atom
  reading bonds ...
  7366 bonds
  reading angles ...
  2655 angles
  reading dihedrals ...
  10 dihedrals
  reading impropers ...
  51 impropers
Finding 1-2 1-3 1-4 neighbors ...
  special bond factors lj:    0        1        1       
  special bond factors coul:  0        1        1       
     8 = max # of 1-2 neighbors
     8 = max # of special neighbors
  special bonds CPU = 0.001 seconds
  read_data CPU = 0.027 seconds
include 		all_data_2mole_water.in			#forcefield parameters
#Masses

bond_style harmonic

bond_coeff    1 8.96271510375      3.3 #AC1-P5-8.96271510375-3.3
bond_coeff    2 8.96271510375      3.3 #AC1-Qd-8.96271510375-3.3
bond_coeff    3 8.96271510375        3 #C3-P4-8.96271510375-3
bond_coeff    4 5.9751434025      3.3 #C3-P5-5.9751434025-3.3
bond_coeff    5 5.9751434025      2.8 #C3-Qd-5.9751434025-2.8
bond_coeff    6 2.98757170125        4 #C5-P5-2.98757170125-4
bond_coeff    7 8.96271510375      3.1 #C5-P5-8.96271510375-3.1
bond_coeff    8 5.9751434025      3.3 #N0-P5-5.9751434025-3.3
bond_coeff    9 5.9751434025      3.4 #N0-Qd-5.9751434025-3.4
bond_coeff   10 8.96271510375      2.5 #P1-P5-8.96271510375-2.5
bond_coeff   11 1.493785850625      3.5 #P4-P5-1.493785850625-3.5
bond_coeff   12 5.9751434025        4 #P4-P5-5.9751434025-4
bond_coeff   13 1.493785850625      3.5 #P5-P5-1.493785850625-3.5
bond_coeff   14 5.9751434025      3.2 #P5-P5-5.9751434025-3.2
bond_coeff   15 1.493785850625      3.5 #P5-Qa-1.493785850625-3.5
bond_coeff   16 5.9751434025        4 #P5-Qa-5.9751434025-4
bond_coeff   17 8.96271510375      3.2 #P5-Qa-8.96271510375-3.2
bond_coeff   18 1.493785850625      3.5 #P5-Qd-1.493785850625-3.5
bond_coeff   19 5.9751434025        3 #P5-SC4-5.9751434025-3
bond_coeff   20 5.9751434025      3.2 #P5-SC4-5.9751434025-3.2
bond_coeff   21 8.96271510375      3.2 #P5-SC4-8.96271510375-3.2
bond_coeff   22 8.96271510375      3.1 #P5-SC5-8.96271510375-3.1
bond_coeff   23        100      2.7 #constrained bond
bond_coeff   24        100      2.7 #constrained bond
bond_coeff   25        100      2.7 #constrained bond
bond_coeff   26        100      2.6 #constrained bond
bond_coeff   27        100     2.65 #constrained bond
bond_coeff   28        100      2.7 #constrained bond
bond_coeff   29        100      2.7 #constrained bond
bond_coeff   30        100      2.7 #constrained bond
bond_coeff   31        100      2.6 #constrained bond
bond_coeff   32        100      2.7 #constrained bond
bond_coeff   33        100      2.7 #constrained bond
bond_coeff   34        100      2.7 #constrained bond
bond_coeff   35        100      2.6 #constrained bond
bond_coeff   36        100     2.65 #constrained bond
bond_coeff   37        100     2.65 #constrained bond
bond_coeff   38        100      3.1 #constrained bond
bond_coeff   39        100      2.7 #constrained bond
bond_coeff   40        100      2.7 #constrained bond
bond_coeff   41        100      2.7 #constrained bond
bond_coeff   42        100     2.65 #constrained bond
bond_coeff   43        100      2.6 #constrained bond
bond_coeff   44        100      2.6 #constrained bond
bond_coeff   45        100      2.6 #constrained bond
bond_coeff   46        100     2.65 #constrained bond
bond_coeff   47        100      2.7 #constrained bond
bond_coeff   48        100      2.7 #constrained bond
bond_coeff   49        100      2.7 #constrained bond
bond_coeff   50        100     2.65 #constrained bond
bond_coeff   51        100      2.7 #constrained bond
bond_coeff   52        100      2.7 #constrained bond
bond_coeff   53        100      2.7 #constrained bond
bond_coeff   54        100      2.7 #constrained bond
bond_coeff   55        100      2.7 #constrained bond
bond_coeff   56        100      2.7 #constrained bond
bond_coeff   57        100      2.7 #constrained bond
bond_coeff   58        100      2.7 #constrained bond
bond_coeff   59        100      3.1 #constrained bond
bond_coeff   60        100      2.7 #constrained bond
bond_coeff   61        100      2.7 #constrained bond
bond_coeff   62        100      2.7 #constrained bond
bond_coeff   63        100      2.6 #constrained bond
bond_coeff   64        100      2.7 #constrained bond
bond_coeff   65        100      2.7 #constrained bond
bond_coeff   66        100      2.7 #constrained bond
bond_coeff   67        100      2.6 #constrained bond
bond_coeff   68        100     2.65 #constrained bond
bond_coeff   69        100      2.6 #constrained bond
bond_coeff   70        100      2.7 #constrained bond
bond_coeff   71        100      2.7 #constrained bond
bond_coeff   72        100      2.7 #constrained bond
bond_coeff   73        100      3.1 #constrained bond
bond_coeff   74        100     2.65 #constrained bond
bond_coeff   75        100     2.65 #constrained bond
bond_coeff   76        100      2.7 #constrained bond
bond_coeff   77        100      2.7 #constrained bond
bond_coeff   78        100      2.7 #constrained bond
bond_coeff   79        100      2.6 #constrained bond
bond_coeff   80        100      2.7 #constrained bond
bond_coeff   81        100      2.7 #constrained bond
bond_coeff   82        100      2.7 #constrained bond
bond_coeff   83        100      2.6 #constrained bond
bond_coeff   84        100     2.65 #constrained bond
bond_coeff   85        100      2.6 #constrained bond
bond_coeff   86        100      2.6 #constrained bond
bond_coeff   87        100      2.6 #constrained bond
bond_coeff   88        100      3.1 #constrained bond
bond_coeff   89        100      3.1 #constrained bond
bond_coeff   90        100      2.7 #constrained bond
bond_coeff   91        100      2.7 #constrained bond
bond_coeff   92        100      2.7 #constrained bond
bond_coeff   93        100     2.65 #constrained bond
bond_coeff   94        250      1.4
bond_coeff   95        250      1.4
bond_coeff   96          0      1.4
bond_coeff   97 11.950286805     3.53 #Q0-SC2-11.950286805-3.53
bond_coeff   98 23.90057361      3.6 #Q0-SN0-23.90057361-3.6
bond_coeff   99 95.60229444     1.98 #SC2-SN0-95.60229444-1.98
bond_coeff  100 35.850860415      2.7 #SC2-TN0-35.850860415-2.7
bond_coeff  101 35.850860415        3 #SC2-TN0-35.850860415-3
bond_coeff  102 23.90057361     3.26 #TA2-TNa-23.90057361-3.26
bond_coeff  103 23.90057361     3.89 #TG2-TNa-23.90057361-3.89
bond_coeff  104        100     2.29 #constrained bond
bond_coeff  105        100     2.66 #constrained bond
bond_coeff  106        100     2.88 #constrained bond
bond_coeff  107        100     1.62 #constrained bond
bond_coeff  108        100     2.17 #constrained bond
bond_coeff  109        100     3.22 #constrained bond
bond_coeff  110        100     2.65 #constrained bond
bond_coeff  111        100     2.29 #constrained bond
bond_coeff  112        100     2.66 #constrained bond
bond_coeff  113        100     2.88 #constrained bond
bond_coeff  114        100     1.62 #constrained bond
bond_coeff  115        100      2.2 #constrained bond
bond_coeff  116        100     2.85 #constrained bond
bond_coeff  117        100     2.68 #constrained bond
bond_coeff  118        100      2.2 #constrained bond
bond_coeff  119        100     2.85 #constrained bond
bond_coeff  120        100     2.68 #constrained bond
bond_coeff  121        100     2.29 #constrained bond
bond_coeff  122        100     2.66 #constrained bond
bond_coeff  123        100     2.88 #constrained bond
bond_coeff  124        100     1.62 #constrained bond
bond_coeff  125        100     2.95 #constrained bond
bond_coeff  126        100     2.95 #constrained bond
bond_coeff  127        100     2.85 #constrained bond
bond_coeff  128        100     1.61 #constrained bond
bond_coeff  129        100      2.2 #constrained bond
bond_coeff  130        100     2.85 #constrained bond
bond_coeff  131        100     2.68 #constrained bond
bond_coeff  132        100     2.17 #constrained bond
bond_coeff  133        100     3.22 #constrained bond
bond_coeff  134        100     2.65 #constrained bond
bond_coeff  135        100     2.17 #constrained bond
bond_coeff  136        100     3.22 #constrained bond
bond_coeff  137        100     2.65 #constrained bond
bond_coeff  138        0.0      2.5 #for fake bond

angle_style hybrid harmonic cosine/squared

angle_coeff    1   cosine/squared 2.98757170125        100 #AC1-P5-P4-2-2.98757170125-100
angle_coeff    2   cosine/squared 2.98757170125        100 #AC1-P5-P5-2-2.98757170125-100
angle_coeff    3   cosine/squared 2.98757170125        100 #AC1-P5-Qd-2-2.98757170125-100
angle_coeff    4   cosine/squared 2.98757170125        100 #AC1-Qd-P5-2-2.98757170125-100
angle_coeff    5   cosine/squared 2.98757170125        100 #AC2-P5-P4-2-2.98757170125-100
angle_coeff    6   cosine/squared 2.98757170125        100 #AC2-P5-P5-2-2.98757170125-100
angle_coeff    7   cosine/squared 2.98757170125        100 #AC2-Qa-P5-2-2.98757170125-100
angle_coeff    8   cosine/squared 2.98757170125        100 #C3-P4-P5-2-2.98757170125-100
angle_coeff    9   cosine/squared 2.98757170125        100 #C3-P5-P4-2-2.98757170125-100
angle_coeff   10   cosine/squared 2.98757170125        100 #C3-P5-P5-2-2.98757170125-100
angle_coeff   11   cosine/squared 2.98757170125        100 #C5-P5-P4-2-2.98757170125-100
angle_coeff   12   cosine/squared 2.98757170125        100 #C5-P5-P5-2-2.98757170125-100
angle_coeff   13   cosine/squared 2.98757170125        100 #N0-P5-P5-2-2.98757170125-100
angle_coeff   14   cosine/squared 2.98757170125        100 #P1-P5-P4-2-2.98757170125-100
angle_coeff   15   cosine/squared 2.98757170125        100 #P1-P5-P5-2-2.98757170125-100
angle_coeff   16   cosine/squared 2.98757170125        100 #P4-P5-P4-2-2.98757170125-100
angle_coeff   17   cosine/squared 2.390057361        127 #P4-P5-P5-2-2.390057361-127
angle_coeff   18   cosine/squared 2.98757170125        100 #P4-P5-P5-2-2.98757170125-100
angle_coeff   19   cosine/squared 2.98757170125        180 #P5-C3-Qd-2-2.98757170125-180
angle_coeff   20   cosine/squared 2.98757170125        180 #P5-N0-Qd-2-2.98757170125-180
angle_coeff   21   cosine/squared 2.390057361        127 #P5-P4-P5-2-2.390057361-127
angle_coeff   22   cosine/squared 2.390057361        127 #P5-P5-P5-2-2.390057361-127
angle_coeff   23   cosine/squared 2.98757170125        100 #P5-P5-P5-2-2.98757170125-100
angle_coeff   24   cosine/squared 2.390057361        127 #P5-P5-Qa-2-2.390057361-127
angle_coeff   25   cosine/squared 2.98757170125        100 #P5-P5-Qa-2-2.98757170125-100
angle_coeff   26   cosine/squared 2.390057361        127 #P5-P5-Qd-2-2.390057361-127
angle_coeff   27   cosine/squared 2.98757170125        100 #P5-P5-SC4-2-2.98757170125-100
angle_coeff   28   cosine/squared 2.98757170125        100 #P5-P5-SC5-2-2.98757170125-100
angle_coeff   29   cosine/squared 5.9751434025        150 #P5-SC4-SC4-2-5.9751434025-150
angle_coeff   30   cosine/squared 5.9751434025         90 #P5-SC4-SC5-2-5.9751434025-90
angle_coeff   31   cosine/squared 5.9751434025        210 #P5-SC4-SNd-2-5.9751434025-210
angle_coeff   32   cosine/squared 5.9751434025        150 #P5-SC4-SP1-2-5.9751434025-150
angle_coeff   33   cosine/squared 5.9751434025        150 #P5-SC5-SC5-2-5.9751434025-150
angle_coeff   34   cosine/squared 0.5019120456        0.0
angle_coeff   35   cosine/squared 17.9254302075  102.00000 #Q0-SC2-SN0-2-17.9254302075-102.00000
angle_coeff   36         harmonic 3.5850860415  180.00000 #Q0-SC2-TN0-1-3.5850860415-180.00000
angle_coeff   37   cosine/squared 17.9254302075  157.00000 #Q0-SC2-TN0-2-17.9254302075-157.00000
angle_coeff   38   cosine/squared 23.90057361  158.00000 #Q0-SC2-TN0-2-23.90057361-158.00000
angle_coeff   39   cosine/squared 23.90057361  110.00000 #Q0-SN0-SC2-2-23.90057361-110.00000
angle_coeff   40   cosine/squared 8.96271510375  106.00000 #SC2-Q0-SN0-2-8.96271510375-106.00000
angle_coeff   41   cosine/squared 23.90057361  160.00000 #SC2-TN0-TA2-2-23.90057361-160.00000
angle_coeff   42   cosine/squared 35.850860415  137.00000 #SC2-TN0-TG2-2-35.850860415-137.00000
angle_coeff   43   cosine/squared 23.90057361  140.00000 #SC2-TN0-TNa-2-23.90057361-140.00000
angle_coeff   44   cosine/squared 29.8757170125  130.00000 #SC2-TN0-TNa-2-29.8757170125-130.00000
angle_coeff   45   cosine/squared 35.850860415  107.00000 #SC2-TN0-TT2-2-35.850860415-107.00000
angle_coeff   46   cosine/squared 35.850860415   95.00000 #SC2-TN0-TY2-2-35.850860415-95.00000
angle_coeff   47   cosine/squared 25.0956022905   95.00000 #SN0-SC2-TN0-2-25.0956022905-95.00000
angle_coeff   48   cosine/squared 26.290630971   92.00000 #SN0-SC2-TN0-2-26.290630971-92.00000
angle_coeff   49   cosine/squared 29.8757170125   94.00000 #SN0-SC2-TN0-2-29.8757170125-94.00000
angle_coeff   50   cosine/squared 29.8757170125   94.50000 #SN0-SC2-TN0-2-29.8757170125-94.50000
angle_coeff   51         harmonic 47.80114722  145.00000 #SN0-TN0-TT3-1-47.80114722-145.00000
angle_coeff   52         harmonic 59.751434025  150.00000 #SN0-TN0-TY3-1-59.751434025-150.00000
angle_coeff   53         harmonic 23.90057361   74.00000 #TA2-TA3-TNa-1-23.90057361-74.00000
angle_coeff   54         harmonic 23.90057361  125.00000 #TA2-TN0-TNa-1-23.90057361-125.00000
angle_coeff   55         harmonic 23.90057361   85.00000 #TA3-TA2-TN0-1-23.90057361-85.00000
angle_coeff   56         harmonic 23.90057361   98.00000 #TA3-TNa-TN0-1-23.90057361-98.00000
angle_coeff   57         harmonic 23.90057361   84.00000 #TG2-TG3-TNa-1-23.90057361-84.00000
angle_coeff   58         harmonic 23.90057361  125.00000 #TG2-TN0-TNa-1-23.90057361-125.00000
angle_coeff   59         harmonic 23.90057361   69.50000 #TG3-TG2-TN0-1-23.90057361-69.50000
angle_coeff   60         harmonic 23.90057361   94.00000 #TG3-TNa-TN0-1-23.90057361-94.00000
angle_coeff   61         harmonic 11.950286805   55.00000 #TN0-TT2-TT3-1-11.950286805-55.00000
angle_coeff   62         harmonic 11.950286805   42.00000 #TN0-TT3-TT2-1-11.950286805-42.00000
angle_coeff   63         harmonic 23.90057361   61.00000 #TN0-TY2-TY3-1-23.90057361-61.00000
angle_coeff   64         harmonic 23.90057361   47.00000 #TN0-TY3-TY2-1-23.90057361-47.00000
angle_coeff   65         harmonic 11.950286805   83.00000 #TT2-TN0-TT3-1-11.950286805-83.00000
angle_coeff   66         harmonic 23.90057361   71.00000 #TY2-TN0-TY3-1-23.90057361-71.00000

dihedral_style fourier

dihedral_coeff    1    2 0.4780114722  2   85.00000 0.4780114722   3 160.00000 #SC2-Q0-SN0-SC2-15-20-21-22
dihedral_coeff    2    2 0.4780114722  2   85.00000 0.4780114722   3 160.00000 #SC2-Q0-SN0-SC2-2-7-8-9
dihedral_coeff    3    2 0.4780114722  2   85.00000 0.4780114722   3 160.00000 #SC2-Q0-SN0-SC2-22-26-27-28
dihedral_coeff    4    2 0.4780114722  2   85.00000 0.4780114722   3 160.00000 #SC2-Q0-SN0-SC2-28-32-33-34
dihedral_coeff    5    2 0.4780114722  2   85.00000 0.4780114722   3 160.00000 #SC2-Q0-SN0-SC2-34-39-40-41
dihedral_coeff    6    2 0.4780114722  2   85.00000 0.4780114722   3 160.00000 #SC2-Q0-SN0-SC2-41-46-47-48
dihedral_coeff    7    2 0.4780114722  2   85.00000 0.4780114722   3 160.00000 #SC2-Q0-SN0-SC2-48-52-53-54
dihedral_coeff    8    2 0.4780114722  2   85.00000 0.4780114722   3 160.00000 #SC2-Q0-SN0-SC2-54-58-59-60
dihedral_coeff    9    2 0.4780114722  2   85.00000 0.4780114722   3 160.00000 #SC2-Q0-SN0-SC2-9-13-14-15
dihedral_coeff   10    1 0.4780114722  3  180.00000 #SN0-SC2-Q0-SN0-1-0.4780114722-3 -180.00000

improper_style harmonic

improper_coeff    1 5.9751434025          0 #P5-SC4-SP1-SC4-2-5.9751434025-0
improper_coeff    2 5.9751434025          0 #P5-SC5-SC5-SC5-2-5.9751434025-0
improper_coeff    3 5.9751434025          0 #P5-SNd-SC5-SC4-2-5.9751434025-0
improper_coeff    4 5.9751434025          0 #P5-SP1-SP1-SC4-2-5.9751434025-0
improper_coeff    5 23.90057361          0 #SC4-SNd-SC5-SC5-2-23.90057361-0
improper_coeff    6 2.98757170125         95 #Q0-SN0-SC2-Q0-2-2.98757170125-95
improper_coeff    7 2.390057361         90 #Q0-SN0-SC2-TN0-2-2.390057361-90
improper_coeff    8 2.98757170125         78 #Q0-SN0-SC2-TN0-2-2.98757170125-78
improper_coeff    9 4.780114722         75 #Q0-SN0-SC2-TN0-2-4.780114722-75
improper_coeff   10 7.76768642325        145 #SC2-SN0-TN0-TT3-2-7.76768642325-145
improper_coeff   11 5.9751434025        142 #SC2-SN0-TN0-TY3-2-5.9751434025-142
improper_coeff   12 0.059751434025        116 #SN0-SC2-TN0-TA2-2-0.059751434025-116
improper_coeff   13 0.11950286805        117 #SN0-SC2-TN0-TG2-2-0.11950286805-117
improper_coeff   14 1.79254302075         92 #SN0-SC2-TN0-TNa-2-1.79254302075-92
improper_coeff   15 1.79254302075         98 #SN0-SC2-TN0-TNa-2-1.79254302075-98
improper_coeff   16 1.79254302075        110 #SN0-SC2-TN0-TT2-2-1.79254302075-110
improper_coeff   17 2.390057361         90 #SN0-SC2-TN0-TY2-2-2.390057361-90

pair_style hybrid lj/gromacs/coul/gromacs 9.0 12.0  0.0 12.0 #lj/gromacs 9.0 12.0

#pair_coeff  	* 	* 	 lj/gromacs 				0.0000 	0.2 	0.1 	0.5
pair_coeff  	* 	* 	 lj/gromacs/coul/gromacs	0.0000 	0.10
pair_coeff		1   1    lj/gromacs/coul/gromacs	0.8365  4.7000 	# C1 C1
pair_coeff		1   2    lj/gromacs/coul/gromacs	0.8365  4.7000 	# C1 C2
pair_coeff		1   3    lj/gromacs/coul/gromacs	0.8365  4.7000 	# C1 C3
pair_coeff		1   4    lj/gromacs/coul/gromacs	0.7409  4.7000 	# C1 C5
pair_coeff		1   5    lj/gromacs/coul/gromacs	0.6453  4.7000 	# C1 N0
pair_coeff		1   6    lj/gromacs/coul/gromacs	0.6453  4.7000 	# C1 P1
pair_coeff		1   7    lj/gromacs/coul/gromacs	0.4780  4.7000 	# C1 P4
pair_coeff		1   8    lj/gromacs/coul/gromacs	0.4780  4.7000 	# C1 P5
pair_coeff		1   9    lj/gromacs/coul/gromacs	0.5497  4.7000 	# C1 Qa
pair_coeff		1   10   lj/gromacs/coul/gromacs	0.5497  4.7000 	# C1 Qd
pair_coeff		1   11   lj/gromacs/coul/gromacs	0.7409  4.7000 	# C1 SC4
pair_coeff		1   12   lj/gromacs/coul/gromacs	0.7409  4.7000 	# C1 SC5
pair_coeff		1   13   lj/gromacs/coul/gromacs	0.6453  4.7000 	# C1 SNd
pair_coeff		1   14   lj/gromacs/coul/gromacs	0.6453  4.7000 	# C1 SP1
pair_coeff		1   15   lj/gromacs/coul/gromacs	0.4541  4.7000 	# C1 POL
pair_coeff		1   18   lj/gromacs/coul/gromacs	0.5497  4.7000 	# C1 Qa
pair_coeff		1   19   lj/gromacs/coul/gromacs	0.5497  4.7000 	# C1 Qd
pair_coeff		1   20   lj/gromacs/coul/gromacs	0.5497  4.7000 	# C1 Q0
pair_coeff		1   21   lj/gromacs/coul/gromacs	0.8365  4.7000 	# C1 SC2
pair_coeff		1   22   lj/gromacs/coul/gromacs	0.6453  4.7000 	# C1 SN0
pair_coeff		1   23   lj/gromacs/coul/gromacs	0.6453  4.7000 	# C1 TA2
pair_coeff		1   24   lj/gromacs/coul/gromacs	0.6453  4.7000 	# C1 TA3
pair_coeff		1   25   lj/gromacs/coul/gromacs	0.6453  4.7000 	# C1 TG2
pair_coeff		1   26   lj/gromacs/coul/gromacs	0.5497  4.7000 	# C1 TG3
pair_coeff		1   27   lj/gromacs/coul/gromacs	0.6453  4.7000 	# C1 TN0
pair_coeff		1   28   lj/gromacs/coul/gromacs	0.6453  4.7000 	# C1 TNa
pair_coeff		1   29   lj/gromacs/coul/gromacs	0.5497  4.7000 	# C1 TT2
pair_coeff		1   30   lj/gromacs/coul/gromacs	0.6453  4.7000 	# C1 TT3
pair_coeff		1   31   lj/gromacs/coul/gromacs	0.5497  4.7000 	# C1 TY2
pair_coeff		1   32   lj/gromacs/coul/gromacs	0.6453  4.7000 	# C1 TY3
pair_coeff		2   2    lj/gromacs/coul/gromacs	0.8365  4.7000 	# C2 C2
pair_coeff		2   3    lj/gromacs/coul/gromacs	0.8365  4.7000 	# C2 C3
pair_coeff		2   4    lj/gromacs/coul/gromacs	0.7409  4.7000 	# C2 C5
pair_coeff		2   5    lj/gromacs/coul/gromacs	0.7409  4.7000 	# C2 N0
pair_coeff		2   6    lj/gromacs/coul/gromacs	0.7409  4.7000 	# C2 P1
pair_coeff		2   7    lj/gromacs/coul/gromacs	0.5497  4.7000 	# C2 P4
pair_coeff		2   8    lj/gromacs/coul/gromacs	0.5497  4.7000 	# C2 P5
pair_coeff		2   9    lj/gromacs/coul/gromacs	0.5497  4.7000 	# C2 Qa
pair_coeff		2   10   lj/gromacs/coul/gromacs	0.5497  4.7000 	# C2 Qd
pair_coeff		2   11   lj/gromacs/coul/gromacs	0.7409  4.7000 	# C2 SC4
pair_coeff		2   12   lj/gromacs/coul/gromacs	0.7409  4.7000 	# C2 SC5
pair_coeff		2   13   lj/gromacs/coul/gromacs	0.6453  4.7000 	# C2 SNd
pair_coeff		2   14   lj/gromacs/coul/gromacs	0.7409  4.7000 	# C2 SP1
pair_coeff		2   15   lj/gromacs/coul/gromacs	0.5222  4.7000 	# C2 POL
pair_coeff		2   18   lj/gromacs/coul/gromacs	0.5497  4.7000 	# C2 Qa
pair_coeff		2   19   lj/gromacs/coul/gromacs	0.5497  4.7000 	# C2 Qd
pair_coeff		2   20   lj/gromacs/coul/gromacs	0.5497  4.7000 	# C2 Q0
pair_coeff		2   21   lj/gromacs/coul/gromacs	0.8365  4.7000 	# C2 SC2
pair_coeff		2   22   lj/gromacs/coul/gromacs	0.7409  4.7000 	# C2 SN0
pair_coeff		2   23   lj/gromacs/coul/gromacs	0.7409  4.7000 	# C2 TA2
pair_coeff		2   24   lj/gromacs/coul/gromacs	0.7409  4.7000 	# C2 TA3
pair_coeff		2   25   lj/gromacs/coul/gromacs	0.7409  4.7000 	# C2 TG2
pair_coeff		2   26   lj/gromacs/coul/gromacs	0.6453  4.7000 	# C2 TG3
pair_coeff		2   27   lj/gromacs/coul/gromacs	0.7409  4.7000 	# C2 TN0
pair_coeff		2   28   lj/gromacs/coul/gromacs	0.6453  4.7000 	# C2 TNa
pair_coeff		2   29   lj/gromacs/coul/gromacs	0.6453  4.7000 	# C2 TT2
pair_coeff		2   30   lj/gromacs/coul/gromacs	0.6453  4.7000 	# C2 TT3
pair_coeff		2   31   lj/gromacs/coul/gromacs	0.6453  4.7000 	# C2 TY2
pair_coeff		2   32   lj/gromacs/coul/gromacs	0.7409  4.7000 	# C2 TY3
pair_coeff		3   3    lj/gromacs/coul/gromacs	0.8365  4.7000 	# C3 C3
pair_coeff		3   4    lj/gromacs/coul/gromacs	0.8365  4.7000 	# C3 C5
pair_coeff		3   5    lj/gromacs/coul/gromacs	0.8365  4.7000 	# C3 N0
pair_coeff		3   6    lj/gromacs/coul/gromacs	0.8365  4.7000 	# C3 P1
pair_coeff		3   7    lj/gromacs/coul/gromacs	0.6453  4.7000 	# C3 P4
pair_coeff		3   8    lj/gromacs/coul/gromacs	0.6453  4.7000 	# C3 P5
pair_coeff		3   9    lj/gromacs/coul/gromacs	0.6453  4.7000 	# C3 Qa
pair_coeff		3   10   lj/gromacs/coul/gromacs	0.6453  4.7000 	# C3 Qd
pair_coeff		3   11   lj/gromacs/coul/gromacs	0.8365  4.7000 	# C3 SC4
pair_coeff		3   12   lj/gromacs/coul/gromacs	0.8365  4.7000 	# C3 SC5
pair_coeff		3   13   lj/gromacs/coul/gromacs	0.6453  4.7000 	# C3 SNd
pair_coeff		3   14   lj/gromacs/coul/gromacs	0.8365  4.7000 	# C3 SP1
pair_coeff		3   15   lj/gromacs/coul/gromacs	0.6130  4.7000 	# C3 POL
pair_coeff		3   18   lj/gromacs/coul/gromacs	0.6453  4.7000 	# C3 Qa
pair_coeff		3   19   lj/gromacs/coul/gromacs	0.6453  4.7000 	# C3 Qd
pair_coeff		3   20   lj/gromacs/coul/gromacs	0.6453  4.7000 	# C3 Q0
pair_coeff		3   21   lj/gromacs/coul/gromacs	0.8365  4.7000 	# C3 SC2
pair_coeff		3   22   lj/gromacs/coul/gromacs	0.8365  4.7000 	# C3 SN0
pair_coeff		3   23   lj/gromacs/coul/gromacs	0.8365  4.7000 	# C3 TA2
pair_coeff		3   24   lj/gromacs/coul/gromacs	0.8365  4.7000 	# C3 TA3
pair_coeff		3   25   lj/gromacs/coul/gromacs	0.8365  4.7000 	# C3 TG2
pair_coeff		3   26   lj/gromacs/coul/gromacs	0.7409  4.7000 	# C3 TG3
pair_coeff		3   27   lj/gromacs/coul/gromacs	0.8365  4.7000 	# C3 TN0
pair_coeff		3   28   lj/gromacs/coul/gromacs	0.6453  4.7000 	# C3 TNa
pair_coeff		3   29   lj/gromacs/coul/gromacs	0.7409  4.7000 	# C3 TT2
pair_coeff		3   30   lj/gromacs/coul/gromacs	0.6453  4.7000 	# C3 TT3
pair_coeff		3   31   lj/gromacs/coul/gromacs	0.7409  4.7000 	# C3 TY2
pair_coeff		3   32   lj/gromacs/coul/gromacs	0.8365  4.7000 	# C3 TY3
pair_coeff		4   4    lj/gromacs/coul/gromacs	0.8365  4.7000 	# C5 C5
pair_coeff		4   5    lj/gromacs/coul/gromacs	0.8365  4.7000 	# C5 N0
pair_coeff		4   6    lj/gromacs/coul/gromacs	0.8365  4.7000 	# C5 P1
pair_coeff		4   7    lj/gromacs/coul/gromacs	0.7409  4.7000 	# C5 P4
pair_coeff		4   8    lj/gromacs/coul/gromacs	0.7409  4.7000 	# C5 P5
pair_coeff		4   9    lj/gromacs/coul/gromacs	0.8365  4.7000 	# C5 Qa
pair_coeff		4   10   lj/gromacs/coul/gromacs	0.8365  4.7000 	# C5 Qd
pair_coeff		4   11   lj/gromacs/coul/gromacs	0.8365  4.7000 	# C5 SC4
pair_coeff		4   12   lj/gromacs/coul/gromacs	0.8365  4.7000 	# C5 SC5
pair_coeff		4   13   lj/gromacs/coul/gromacs	0.8365  4.7000 	# C5 SNd
pair_coeff		4   14   lj/gromacs/coul/gromacs	0.8365  4.7000 	# C5 SP1
pair_coeff		4   15   lj/gromacs/coul/gromacs	0.7039  4.7000 	# C5 POL
pair_coeff		4   18   lj/gromacs/coul/gromacs	0.8365  4.7000 	# C5 Qa
pair_coeff		4   19   lj/gromacs/coul/gromacs	0.8365  4.7000 	# C5 Qd
pair_coeff		4   20   lj/gromacs/coul/gromacs	0.8365  4.7000 	# C5 Q0
pair_coeff		4   21   lj/gromacs/coul/gromacs	0.7409  4.7000 	# C5 SC2
pair_coeff		4   22   lj/gromacs/coul/gromacs	0.8365  4.7000 	# C5 SN0
pair_coeff		4   23   lj/gromacs/coul/gromacs	0.8365  4.7000 	# C5 TA2
pair_coeff		4   24   lj/gromacs/coul/gromacs	0.8365  4.7000 	# C5 TA3
pair_coeff		4   25   lj/gromacs/coul/gromacs	0.8365  4.7000 	# C5 TG2
pair_coeff		4   26   lj/gromacs/coul/gromacs	0.8365  4.7000 	# C5 TG3
pair_coeff		4   27   lj/gromacs/coul/gromacs	0.8365  4.7000 	# C5 TN0
pair_coeff		4   28   lj/gromacs/coul/gromacs	0.8365  4.7000 	# C5 TNa
pair_coeff		4   29   lj/gromacs/coul/gromacs	0.8365  4.7000 	# C5 TT2
pair_coeff		4   30   lj/gromacs/coul/gromacs	0.8365  4.7000 	# C5 TT3
pair_coeff		4   31   lj/gromacs/coul/gromacs	0.8365  4.7000 	# C5 TY2
pair_coeff		4   32   lj/gromacs/coul/gromacs	0.8365  4.7000 	# C5 TY3
pair_coeff		5   5    lj/gromacs/coul/gromacs	0.8365  4.7000 	# N0 N0
pair_coeff		5   6    lj/gromacs/coul/gromacs	0.9560  4.7000 	# N0 P1
pair_coeff		5   7    lj/gromacs/coul/gromacs	0.8365  4.7000 	# N0 P4
pair_coeff		5   8    lj/gromacs/coul/gromacs	0.8365  4.7000 	# N0 P5
pair_coeff		5   9    lj/gromacs/coul/gromacs	0.9560  4.7000 	# N0 Qa
pair_coeff		5   10   lj/gromacs/coul/gromacs	0.9560  4.7000 	# N0 Qd
pair_coeff		5   11   lj/gromacs/coul/gromacs	0.8365  4.7000 	# N0 SC4
pair_coeff		5   12   lj/gromacs/coul/gromacs	0.8365  4.7000 	# N0 SC5
pair_coeff		5   13   lj/gromacs/coul/gromacs	0.8365  4.7000 	# N0 SNd
pair_coeff		5   14   lj/gromacs/coul/gromacs	0.9560  4.7000 	# N0 SP1
pair_coeff		5   15   lj/gromacs/coul/gromacs	0.7947  4.7000 	# N0 POL
pair_coeff		5   18   lj/gromacs/coul/gromacs	0.9560  4.7000 	# N0 Qa
pair_coeff		5   19   lj/gromacs/coul/gromacs	0.9560  4.7000 	# N0 Qd
pair_coeff		5   20   lj/gromacs/coul/gromacs	0.9560  4.7000 	# N0 Q0
pair_coeff		5   21   lj/gromacs/coul/gromacs	0.7409  4.7000 	# N0 SC2
pair_coeff		5   22   lj/gromacs/coul/gromacs	0.8365  4.7000 	# N0 SN0
pair_coeff		5   23   lj/gromacs/coul/gromacs	0.8365  4.7000 	# N0 TA2
pair_coeff		5   24   lj/gromacs/coul/gromacs	0.9560  4.7000 	# N0 TA3
pair_coeff		5   25   lj/gromacs/coul/gromacs	0.9560  4.7000 	# N0 TG2
pair_coeff		5   26   lj/gromacs/coul/gromacs	0.9560  4.7000 	# N0 TG3
pair_coeff		5   27   lj/gromacs/coul/gromacs	0.8365  4.7000 	# N0 TN0
pair_coeff		5   28   lj/gromacs/coul/gromacs	0.8365  4.7000 	# N0 TNa
pair_coeff		5   29   lj/gromacs/coul/gromacs	0.9560  4.7000 	# N0 TT2
pair_coeff		5   30   lj/gromacs/coul/gromacs	0.8365  4.7000 	# N0 TT3
pair_coeff		5   31   lj/gromacs/coul/gromacs	0.9560  4.7000 	# N0 TY2
pair_coeff		5   32   lj/gromacs/coul/gromacs	0.9560  4.7000 	# N0 TY3
pair_coeff		6   6    lj/gromacs/coul/gromacs	1.0755  4.7000 	# P1 P1
pair_coeff		6   7    lj/gromacs/coul/gromacs	1.0755  4.7000 	# P1 P4
pair_coeff		6   8    lj/gromacs/coul/gromacs	1.3384  4.7000 	# P1 P5
pair_coeff		6   9    lj/gromacs/coul/gromacs	1.3384  4.7000 	# P1 Qa
pair_coeff		6   10   lj/gromacs/coul/gromacs	1.3384  4.7000 	# P1 Qd
pair_coeff		6   11   lj/gromacs/coul/gromacs	0.8365  4.7000 	# P1 SC4
pair_coeff		6   12   lj/gromacs/coul/gromacs	0.8365  4.7000 	# P1 SC5
pair_coeff		6   13   lj/gromacs/coul/gromacs	1.0755  4.7000 	# P1 SNd
pair_coeff		6   14   lj/gromacs/coul/gromacs	1.0755  4.7000 	# P1 SP1
pair_coeff		6   15   lj/gromacs/coul/gromacs	1.0217  4.7000 	# P1 POL
pair_coeff		6   18   lj/gromacs/coul/gromacs	1.3384  4.7000 	# P1 Qa
pair_coeff		6   19   lj/gromacs/coul/gromacs	1.3384  4.7000 	# P1 Qd
pair_coeff		6   20   lj/gromacs/coul/gromacs	1.0755  4.7000 	# P1 Q0
pair_coeff		6   21   lj/gromacs/coul/gromacs	0.7409  4.7000 	# P1 SC2
pair_coeff		6   22   lj/gromacs/coul/gromacs	0.9560  4.7000 	# P1 SN0
pair_coeff		6   23   lj/gromacs/coul/gromacs	0.9560  4.7000 	# P1 TA2
pair_coeff		6   24   lj/gromacs/coul/gromacs	1.0755  4.7000 	# P1 TA3
pair_coeff		6   25   lj/gromacs/coul/gromacs	1.0755  4.7000 	# P1 TG2
pair_coeff		6   26   lj/gromacs/coul/gromacs	1.0755  4.7000 	# P1 TG3
pair_coeff		6   27   lj/gromacs/coul/gromacs	0.9560  4.7000 	# P1 TN0
pair_coeff		6   28   lj/gromacs/coul/gromacs	1.0755  4.7000 	# P1 TNa
pair_coeff		6   29   lj/gromacs/coul/gromacs	1.0755  4.7000 	# P1 TT2
pair_coeff		6   30   lj/gromacs/coul/gromacs	1.0755  4.7000 	# P1 TT3
pair_coeff		6   31   lj/gromacs/coul/gromacs	1.0755  4.7000 	# P1 TY2
pair_coeff		6   32   lj/gromacs/coul/gromacs	1.0755  4.7000 	# P1 TY3
pair_coeff		7   7    lj/gromacs/coul/gromacs	1.1950  4.7000 	# P4 P4
pair_coeff		7   8    lj/gromacs/coul/gromacs	1.3384  4.7000 	# P4 P5
pair_coeff		7   9    lj/gromacs/coul/gromacs	1.3384  4.7000 	# P4 Qa
pair_coeff		7   10   lj/gromacs/coul/gromacs	1.3384  4.7000 	# P4 Qd
pair_coeff		7   11   lj/gromacs/coul/gromacs	0.6453  4.7000 	# P4 SC4
pair_coeff		7   12   lj/gromacs/coul/gromacs	0.7409  4.7000 	# P4 SC5
pair_coeff		7   13   lj/gromacs/coul/gromacs	0.9560  4.7000 	# P4 SNd
pair_coeff		7   14   lj/gromacs/coul/gromacs	1.0755  4.7000 	# P4 SP1
pair_coeff		7   15   lj/gromacs/coul/gromacs	1.1353  4.7000 	# P4 POL
pair_coeff		7   18   lj/gromacs/coul/gromacs	1.3384  4.7000 	# P4 Qa
pair_coeff		7   19   lj/gromacs/coul/gromacs	1.3384  4.7000 	# P4 Qd
pair_coeff		7   20   lj/gromacs/coul/gromacs	1.3384  4.7000 	# P4 Q0
pair_coeff		7   21   lj/gromacs/coul/gromacs	0.5497  4.7000 	# P4 SC2
pair_coeff		7   22   lj/gromacs/coul/gromacs	0.8365  4.7000 	# P4 SN0
pair_coeff		7   23   lj/gromacs/coul/gromacs	0.8365  4.7000 	# P4 TA2
pair_coeff		7   24   lj/gromacs/coul/gromacs	1.0755  4.7000 	# P4 TA3
pair_coeff		7   25   lj/gromacs/coul/gromacs	1.0755  4.7000 	# P4 TG2
pair_coeff		7   26   lj/gromacs/coul/gromacs	1.0755  4.7000 	# P4 TG3
pair_coeff		7   27   lj/gromacs/coul/gromacs	0.8365  4.7000 	# P4 TN0
pair_coeff		7   28   lj/gromacs/coul/gromacs	0.9560  4.7000 	# P4 TNa
pair_coeff		7   29   lj/gromacs/coul/gromacs	1.0755  4.7000 	# P4 TT2
pair_coeff		7   30   lj/gromacs/coul/gromacs	0.9560  4.7000 	# P4 TT3
pair_coeff		7   31   lj/gromacs/coul/gromacs	1.0755  4.7000 	# P4 TY2
pair_coeff		7   32   lj/gromacs/coul/gromacs	1.0755  4.7000 	# P4 TY3
pair_coeff		8   8    lj/gromacs/coul/gromacs	1.3384  4.7000 	# P5 P5
pair_coeff		8   9    lj/gromacs/coul/gromacs	1.3384  4.7000 	# P5 Qa
pair_coeff		8   10   lj/gromacs/coul/gromacs	1.3384  4.7000 	# P5 Qd
pair_coeff		8   11   lj/gromacs/coul/gromacs	0.6453  4.7000 	# P5 SC4
pair_coeff		8   12   lj/gromacs/coul/gromacs	0.7409  4.7000 	# P5 SC5
pair_coeff		8   13   lj/gromacs/coul/gromacs	1.1950  4.7000 	# P5 SNd
pair_coeff		8   14   lj/gromacs/coul/gromacs	1.3384  4.7000 	# P5 SP1
pair_coeff		8   15   lj/gromacs/coul/gromacs	1.2715  4.7000 	# P5 POL
pair_coeff		8   18   lj/gromacs/coul/gromacs	1.3384  4.7000 	# P5 Qa
pair_coeff		8   19   lj/gromacs/coul/gromacs	1.3384  4.7000 	# P5 Qd
pair_coeff		8   20   lj/gromacs/coul/gromacs	1.3384  4.7000 	# P5 Q0
pair_coeff		8   21   lj/gromacs/coul/gromacs	0.5497  4.7000 	# P5 SC2
pair_coeff		8   22   lj/gromacs/coul/gromacs	0.8365  4.7000 	# P5 SN0
pair_coeff		8   23   lj/gromacs/coul/gromacs	0.8365  4.7000 	# P5 TA2
pair_coeff		8   24   lj/gromacs/coul/gromacs	1.3384  4.7000 	# P5 TA3
pair_coeff		8   25   lj/gromacs/coul/gromacs	1.3384  4.7000 	# P5 TG2
pair_coeff		8   26   lj/gromacs/coul/gromacs	1.3384  4.7000 	# P5 TG3
pair_coeff		8   27   lj/gromacs/coul/gromacs	0.8365  4.7000 	# P5 TN0
pair_coeff		8   28   lj/gromacs/coul/gromacs	1.1950  4.7000 	# P5 TNa
pair_coeff		8   29   lj/gromacs/coul/gromacs	1.3384  4.7000 	# P5 TT2
pair_coeff		8   30   lj/gromacs/coul/gromacs	1.1950  4.7000 	# P5 TT3
pair_coeff		8   31   lj/gromacs/coul/gromacs	1.3384  4.7000 	# P5 TY2
pair_coeff		8   32   lj/gromacs/coul/gromacs	1.3384  4.7000 	# P5 TY3
pair_coeff		9   9    lj/gromacs/coul/gromacs	0.8365  4.7000 	# Qa Qa
pair_coeff		9   10   lj/gromacs/coul/gromacs	0.9560  4.7000 	# Qa Qd
pair_coeff		9   11   lj/gromacs/coul/gromacs	0.7409  4.7000 	# Qa SC4
pair_coeff		9   12   lj/gromacs/coul/gromacs	0.8365  4.7000 	# Qa SC5
pair_coeff		9   13   lj/gromacs/coul/gromacs	1.3384  4.7000 	# Qa SNd
pair_coeff		9   14   lj/gromacs/coul/gromacs	1.3384  4.7000 	# Qa SP1
pair_coeff		9   15   lj/gromacs/coul/gromacs	1.1950  4.7000 	# Qa POL
pair_coeff		9   18   lj/gromacs/coul/gromacs	0.8365  4.7000 	# Qa Qa
pair_coeff		9   19   lj/gromacs/coul/gromacs	0.9560  4.7000 	# Qa Qd
pair_coeff		9   20   lj/gromacs/coul/gromacs	0.5497  4.7000 	# Qa Q0
pair_coeff		9   21   lj/gromacs/coul/gromacs	0.5497  4.7000 	# Qa SC2
pair_coeff		9   22   lj/gromacs/coul/gromacs	0.9560  4.7000 	# Qa SN0
pair_coeff		9   23   lj/gromacs/coul/gromacs	0.9560  4.7000 	# Qa TA2
pair_coeff		9   24   lj/gromacs/coul/gromacs	1.3384  4.7000 	# Qa TA3
pair_coeff		9   25   lj/gromacs/coul/gromacs	1.3384  4.7000 	# Qa TG2
pair_coeff		9   26   lj/gromacs/coul/gromacs	1.3384  4.7000 	# Qa TG3
pair_coeff		9   27   lj/gromacs/coul/gromacs	0.9560  4.7000 	# Qa TN0
pair_coeff		9   28   lj/gromacs/coul/gromacs	1.0755  4.7000 	# Qa TNa
pair_coeff		9   29   lj/gromacs/coul/gromacs	1.3384  4.7000 	# Qa TT2
pair_coeff		9   30   lj/gromacs/coul/gromacs	1.0755  4.7000 	# Qa TT3
pair_coeff		9   31   lj/gromacs/coul/gromacs	1.3384  4.7000 	# Qa TY2
pair_coeff		9   32   lj/gromacs/coul/gromacs	1.3384  4.7000 	# Qa TY3
pair_coeff		10  10   lj/gromacs/coul/gromacs	0.8365  4.7000 	# Qd Qd
pair_coeff		10  11   lj/gromacs/coul/gromacs	0.7409  4.7000 	# Qd SC4
pair_coeff		10  12   lj/gromacs/coul/gromacs	0.8365  4.7000 	# Qd SC5
pair_coeff		10  13   lj/gromacs/coul/gromacs	1.0755  4.7000 	# Qd SNd
pair_coeff		10  14   lj/gromacs/coul/gromacs	1.3384  4.7000 	# Qd SP1
pair_coeff		10  15   lj/gromacs/coul/gromacs	1.1950  4.7000 	# Qd POL
pair_coeff		10  18   lj/gromacs/coul/gromacs	0.9560  4.7000 	# Qd Qa
pair_coeff		10  19   lj/gromacs/coul/gromacs	0.8365  4.7000 	# Qd Qd
pair_coeff		10  20   lj/gromacs/coul/gromacs	0.5497  4.7000 	# Qd Q0
pair_coeff		10  21   lj/gromacs/coul/gromacs	0.5497  4.7000 	# Qd SC2
pair_coeff		10  22   lj/gromacs/coul/gromacs	0.9560  4.7000 	# Qd SN0
pair_coeff		10  23   lj/gromacs/coul/gromacs	0.9560  4.7000 	# Qd TA2
pair_coeff		10  24   lj/gromacs/coul/gromacs	1.3384  4.7000 	# Qd TA3
pair_coeff		10  25   lj/gromacs/coul/gromacs	1.3384  4.7000 	# Qd TG2
pair_coeff		10  26   lj/gromacs/coul/gromacs	1.3384  4.7000 	# Qd TG3
pair_coeff		10  27   lj/gromacs/coul/gromacs	0.9560  4.7000 	# Qd TN0
pair_coeff		10  28   lj/gromacs/coul/gromacs	1.3384  4.7000 	# Qd TNa
pair_coeff		10  29   lj/gromacs/coul/gromacs	1.3384  4.7000 	# Qd TT2
pair_coeff		10  30   lj/gromacs/coul/gromacs	1.3384  4.7000 	# Qd TT3
pair_coeff		10  31   lj/gromacs/coul/gromacs	1.3384  4.7000 	# Qd TY2
pair_coeff		10  32   lj/gromacs/coul/gromacs	1.3384  4.7000 	# Qd TY3
pair_coeff		11  11   lj/gromacs/coul/gromacs	0.6274  4.3000 	# SC4 SC4
pair_coeff		11  12   lj/gromacs/coul/gromacs	0.6274  4.3000 	# SC4 SC5
pair_coeff		11  13   lj/gromacs/coul/gromacs	0.5557  4.3000 	# SC4 SNd
pair_coeff		11  14   lj/gromacs/coul/gromacs	0.6274  4.3000 	# SC4 SP1
pair_coeff		11  15   lj/gromacs/coul/gromacs	0.6130  4.7000 	# SC4 POL
pair_coeff		11  18   lj/gromacs/coul/gromacs	0.7409  4.7000 	# SC4 Qa
pair_coeff		11  19   lj/gromacs/coul/gromacs	0.7409  4.7000 	# SC4 Qd
pair_coeff		11  20   lj/gromacs/coul/gromacs	0.7409  4.7000 	# SC4 Q0
pair_coeff		11  21   lj/gromacs/coul/gromacs	0.5557  4.3000 	# SC4 SC2
pair_coeff		11  22   lj/gromacs/coul/gromacs	0.6274  4.3000 	# SC4 SN0
pair_coeff		11  23   lj/gromacs/coul/gromacs	0.6274  4.3000 	# SC4 TA2
pair_coeff		11  24   lj/gromacs/coul/gromacs	0.6274  4.3000 	# SC4 TA3
pair_coeff		11  25   lj/gromacs/coul/gromacs	0.6274  4.3000 	# SC4 TG2
pair_coeff		11  26   lj/gromacs/coul/gromacs	0.6274  4.3000 	# SC4 TG3
pair_coeff		11  27   lj/gromacs/coul/gromacs	0.6274  4.3000 	# SC4 TN0
pair_coeff		11  28   lj/gromacs/coul/gromacs	0.5557  4.3000 	# SC4 TNa
pair_coeff		11  29   lj/gromacs/coul/gromacs	0.6274  4.3000 	# SC4 TT2
pair_coeff		11  30   lj/gromacs/coul/gromacs	0.5557  4.3000 	# SC4 TT3
pair_coeff		11  31   lj/gromacs/coul/gromacs	0.6274  4.3000 	# SC4 TY2
pair_coeff		11  32   lj/gromacs/coul/gromacs	0.6274  4.3000 	# SC4 TY3
pair_coeff		12  12   lj/gromacs/coul/gromacs	0.6274  4.3000 	# SC5 SC5
pair_coeff		12  13   lj/gromacs/coul/gromacs	0.6274  4.3000 	# SC5 SNd
pair_coeff		12  14   lj/gromacs/coul/gromacs	0.6274  4.3000 	# SC5 SP1
pair_coeff		12  15   lj/gromacs/coul/gromacs	0.7039  4.7000 	# SC5 POL
pair_coeff		12  18   lj/gromacs/coul/gromacs	0.8365  4.7000 	# SC5 Qa
pair_coeff		12  19   lj/gromacs/coul/gromacs	0.8365  4.7000 	# SC5 Qd
pair_coeff		12  20   lj/gromacs/coul/gromacs	0.8365  4.7000 	# SC5 Q0
pair_coeff		12  21   lj/gromacs/coul/gromacs	0.5557  4.3000 	# SC5 SC2
pair_coeff		12  22   lj/gromacs/coul/gromacs	0.6274  4.3000 	# SC5 SN0
pair_coeff		12  23   lj/gromacs/coul/gromacs	0.6274  4.3000 	# SC5 TA2
pair_coeff		12  24   lj/gromacs/coul/gromacs	0.6274  4.3000 	# SC5 TA3
pair_coeff		12  25   lj/gromacs/coul/gromacs	0.6274  4.3000 	# SC5 TG2
pair_coeff		12  26   lj/gromacs/coul/gromacs	0.6274  4.3000 	# SC5 TG3
pair_coeff		12  27   lj/gromacs/coul/gromacs	0.6274  4.3000 	# SC5 TN0
pair_coeff		12  28   lj/gromacs/coul/gromacs	0.6274  4.3000 	# SC5 TNa
pair_coeff		12  29   lj/gromacs/coul/gromacs	0.6274  4.3000 	# SC5 TT2
pair_coeff		12  30   lj/gromacs/coul/gromacs	0.6274  4.3000 	# SC5 TT3
pair_coeff		12  31   lj/gromacs/coul/gromacs	0.6274  4.3000 	# SC5 TY2
pair_coeff		12  32   lj/gromacs/coul/gromacs	0.6274  4.3000 	# SC5 TY3
pair_coeff		13  13   lj/gromacs/coul/gromacs	0.7170  4.3000 	# SNd SNd
pair_coeff		13  14   lj/gromacs/coul/gromacs	0.8066  4.3000 	# SNd SP1
pair_coeff		13  15   lj/gromacs/coul/gromacs	0.9082  4.7000 	# SNd POL
pair_coeff		13  18   lj/gromacs/coul/gromacs	1.3384  4.7000 	# SNd Qa
pair_coeff		13  19   lj/gromacs/coul/gromacs	1.0755  4.7000 	# SNd Qd
pair_coeff		13  20   lj/gromacs/coul/gromacs	1.0755  4.7000 	# SNd Q0
pair_coeff		13  21   lj/gromacs/coul/gromacs	0.4840  4.3000 	# SNd SC2
pair_coeff		13  22   lj/gromacs/coul/gromacs	0.6274  4.3000 	# SNd SN0
pair_coeff		13  23   lj/gromacs/coul/gromacs	0.6274  4.3000 	# SNd TA2
pair_coeff		13  24   lj/gromacs/coul/gromacs	0.8066  4.3000 	# SNd TA3
pair_coeff		13  25   lj/gromacs/coul/gromacs	0.8066  4.3000 	# SNd TG2
pair_coeff		13  26   lj/gromacs/coul/gromacs	0.8066  4.3000 	# SNd TG3
pair_coeff		13  27   lj/gromacs/coul/gromacs	0.6274  4.3000 	# SNd TN0
pair_coeff		13  28   lj/gromacs/coul/gromacs	0.8066  4.3000 	# SNd TNa
pair_coeff		13  29   lj/gromacs/coul/gromacs	0.8066  4.3000 	# SNd TT2
pair_coeff		13  30   lj/gromacs/coul/gromacs	0.8066  4.3000 	# SNd TT3
pair_coeff		13  31   lj/gromacs/coul/gromacs	0.8066  4.3000 	# SNd TY2
pair_coeff		13  32   lj/gromacs/coul/gromacs	0.8066  4.3000 	# SNd TY3
pair_coeff		14  14   lj/gromacs/coul/gromacs	0.8066  4.3000 	# SP1 SP1
pair_coeff		14  15   lj/gromacs/coul/gromacs	1.0217  4.7000 	# SP1 POL
pair_coeff		14  18   lj/gromacs/coul/gromacs	1.3384  4.7000 	# SP1 Qa
pair_coeff		14  19   lj/gromacs/coul/gromacs	1.3384  4.7000 	# SP1 Qd
pair_coeff		14  20   lj/gromacs/coul/gromacs	1.0755  4.7000 	# SP1 Q0
pair_coeff		14  21   lj/gromacs/coul/gromacs	0.5557  4.3000 	# SP1 SC2
pair_coeff		14  22   lj/gromacs/coul/gromacs	0.7170  4.3000 	# SP1 SN0
pair_coeff		14  23   lj/gromacs/coul/gromacs	0.7170  4.3000 	# SP1 TA2
pair_coeff		14  24   lj/gromacs/coul/gromacs	0.8066  4.3000 	# SP1 TA3
pair_coeff		14  25   lj/gromacs/coul/gromacs	0.8066  4.3000 	# SP1 TG2
pair_coeff		14  26   lj/gromacs/coul/gromacs	0.8066  4.3000 	# SP1 TG3
pair_coeff		14  27   lj/gromacs/coul/gromacs	0.7170  4.3000 	# SP1 TN0
pair_coeff		14  28   lj/gromacs/coul/gromacs	0.8066  4.3000 	# SP1 TNa
pair_coeff		14  29   lj/gromacs/coul/gromacs	0.8066  4.3000 	# SP1 TT2
pair_coeff		14  30   lj/gromacs/coul/gromacs	0.8066  4.3000 	# SP1 TT3
pair_coeff		14  31   lj/gromacs/coul/gromacs	0.8066  4.3000 	# SP1 TY2
pair_coeff		14  32   lj/gromacs/coul/gromacs	0.8066  4.3000 	# SP1 TY3
pair_coeff		15  15   lj/gromacs/coul/gromacs	0.9560  4.7000 	# POL POL
pair_coeff		15  18   lj/gromacs/coul/gromacs	1.1950  4.7000 	# POL Qa
pair_coeff		15  19   lj/gromacs/coul/gromacs	1.1950  4.7000 	# POL Qd
pair_coeff		15  20   lj/gromacs/coul/gromacs	1.0755  4.7000 	# POL Q0
pair_coeff		15  21   lj/gromacs/coul/gromacs	0.5222  4.7000 	# POL SC2
pair_coeff		15  22   lj/gromacs/coul/gromacs	0.7947  4.7000 	# POL SN0
pair_coeff		15  23   lj/gromacs/coul/gromacs	0.7947  4.7000 	# POL TA2
pair_coeff		15  24   lj/gromacs/coul/gromacs	1.0217  4.7000 	# POL TA3
pair_coeff		15  25   lj/gromacs/coul/gromacs	1.0217  4.7000 	# POL TG2
pair_coeff		15  26   lj/gromacs/coul/gromacs	1.0217  4.7000 	# POL TG3
pair_coeff		15  27   lj/gromacs/coul/gromacs	0.7947  4.7000 	# POL TN0
pair_coeff		15  28   lj/gromacs/coul/gromacs	0.9082  4.7000 	# POL TNa
pair_coeff		15  29   lj/gromacs/coul/gromacs	1.0217  4.7000 	# POL TT2
pair_coeff		15  30   lj/gromacs/coul/gromacs	0.9082  4.7000 	# POL TT3
pair_coeff		15  31   lj/gromacs/coul/gromacs	1.0217  4.7000 	# POL TY2
pair_coeff		15  32   lj/gromacs/coul/gromacs	1.0217  4.7000 	# POL TY3
pair_coeff		18  18   lj/gromacs/coul/gromacs	0.8365  4.7000 	# Qa Qa
pair_coeff		18  19   lj/gromacs/coul/gromacs	0.9560  4.7000 	# Qa Qd
pair_coeff		18  20   lj/gromacs/coul/gromacs	0.5497  4.7000 	# Qa Q0
pair_coeff		18  21   lj/gromacs/coul/gromacs	0.5497  4.7000 	# Qa SC2
pair_coeff		18  22   lj/gromacs/coul/gromacs	0.9560  4.7000 	# Qa SN0
pair_coeff		18  23   lj/gromacs/coul/gromacs	0.9560  4.7000 	# Qa TA2
pair_coeff		18  24   lj/gromacs/coul/gromacs	1.3384  4.7000 	# Qa TA3
pair_coeff		18  25   lj/gromacs/coul/gromacs	1.3384  4.7000 	# Qa TG2
pair_coeff		18  26   lj/gromacs/coul/gromacs	1.3384  4.7000 	# Qa TG3
pair_coeff		18  27   lj/gromacs/coul/gromacs	0.9560  4.7000 	# Qa TN0
pair_coeff		18  28   lj/gromacs/coul/gromacs	1.0755  4.7000 	# Qa TNa
pair_coeff		18  29   lj/gromacs/coul/gromacs	1.3384  4.7000 	# Qa TT2
pair_coeff		18  30   lj/gromacs/coul/gromacs	1.0755  4.7000 	# Qa TT3
pair_coeff		18  31   lj/gromacs/coul/gromacs	1.3384  4.7000 	# Qa TY2
pair_coeff		18  32   lj/gromacs/coul/gromacs	1.3384  4.7000 	# Qa TY3
pair_coeff		19  19   lj/gromacs/coul/gromacs	0.8365  4.7000 	# Qd Qd
pair_coeff		19  20   lj/gromacs/coul/gromacs	0.5497  4.7000 	# Qd Q0
pair_coeff		19  21   lj/gromacs/coul/gromacs	0.5497  4.7000 	# Qd SC2
pair_coeff		19  22   lj/gromacs/coul/gromacs	0.9560  4.7000 	# Qd SN0
pair_coeff		19  23   lj/gromacs/coul/gromacs	0.9560  4.7000 	# Qd TA2
pair_coeff		19  24   lj/gromacs/coul/gromacs	1.3384  4.7000 	# Qd TA3
pair_coeff		19  25   lj/gromacs/coul/gromacs	1.3384  4.7000 	# Qd TG2
pair_coeff		19  26   lj/gromacs/coul/gromacs	1.3384  4.7000 	# Qd TG3
pair_coeff		19  27   lj/gromacs/coul/gromacs	0.9560  4.7000 	# Qd TN0
pair_coeff		19  28   lj/gromacs/coul/gromacs	1.3384  4.7000 	# Qd TNa
pair_coeff		19  29   lj/gromacs/coul/gromacs	1.3384  4.7000 	# Qd TT2
pair_coeff		19  30   lj/gromacs/coul/gromacs	1.3384  4.7000 	# Qd TT3
pair_coeff		19  31   lj/gromacs/coul/gromacs	1.3384  4.7000 	# Qd TY2
pair_coeff		19  32   lj/gromacs/coul/gromacs	1.3384  4.7000 	# Qd TY3
pair_coeff		20  20   lj/gromacs/coul/gromacs	0.8365  4.7000 	# Q0 Q0
pair_coeff		20  21   lj/gromacs/coul/gromacs	0.5497  4.7000 	# Q0 SC2
pair_coeff		20  22   lj/gromacs/coul/gromacs	0.9560  4.7000 	# Q0 SN0
pair_coeff		20  23   lj/gromacs/coul/gromacs	0.9560  4.7000 	# Q0 TA2
pair_coeff		20  24   lj/gromacs/coul/gromacs	1.0755  4.7000 	# Q0 TA3
pair_coeff		20  25   lj/gromacs/coul/gromacs	1.0755  4.7000 	# Q0 TG2
pair_coeff		20  26   lj/gromacs/coul/gromacs	1.1950  4.7000 	# Q0 TG3
pair_coeff		20  27   lj/gromacs/coul/gromacs	0.9560  4.7000 	# Q0 TN0
pair_coeff		20  28   lj/gromacs/coul/gromacs	1.0755  4.7000 	# Q0 TNa
pair_coeff		20  29   lj/gromacs/coul/gromacs	1.1950  4.7000 	# Q0 TT2
pair_coeff		20  30   lj/gromacs/coul/gromacs	1.0755  4.7000 	# Q0 TT3
pair_coeff		20  31   lj/gromacs/coul/gromacs	1.1950  4.7000 	# Q0 TY2
pair_coeff		20  32   lj/gromacs/coul/gromacs	1.0755  4.7000 	# Q0 TY3
pair_coeff		21  21   lj/gromacs/coul/gromacs	0.6274  4.3000 	# SC2 SC2
pair_coeff		21  22   lj/gromacs/coul/gromacs	0.5557  4.3000 	# SC2 SN0
pair_coeff		21  23   lj/gromacs/coul/gromacs	0.5557  4.3000 	# SC2 TA2
pair_coeff		21  24   lj/gromacs/coul/gromacs	0.5557  4.3000 	# SC2 TA3
pair_coeff		21  25   lj/gromacs/coul/gromacs	0.5557  4.3000 	# SC2 TG2
pair_coeff		21  26   lj/gromacs/coul/gromacs	0.4840  4.3000 	# SC2 TG3
pair_coeff		21  27   lj/gromacs/coul/gromacs	0.5557  4.3000 	# SC2 TN0
pair_coeff		21  28   lj/gromacs/coul/gromacs	0.4840  4.3000 	# SC2 TNa
pair_coeff		21  29   lj/gromacs/coul/gromacs	0.4840  4.3000 	# SC2 TT2
pair_coeff		21  30   lj/gromacs/coul/gromacs	0.4840  4.3000 	# SC2 TT3
pair_coeff		21  31   lj/gromacs/coul/gromacs	0.4840  4.3000 	# SC2 TY2
pair_coeff		21  32   lj/gromacs/coul/gromacs	0.5557  4.3000 	# SC2 TY3
pair_coeff		22  22   lj/gromacs/coul/gromacs	0.6274  4.3000 	# SN0 SN0
pair_coeff		22  23   lj/gromacs/coul/gromacs	0.6274  4.3000 	# SN0 TA2
pair_coeff		22  24   lj/gromacs/coul/gromacs	0.7170  4.3000 	# SN0 TA3
pair_coeff		22  25   lj/gromacs/coul/gromacs	0.7170  4.3000 	# SN0 TG2
pair_coeff		22  26   lj/gromacs/coul/gromacs	0.7170  4.3000 	# SN0 TG3
pair_coeff		22  27   lj/gromacs/coul/gromacs	0.6274  4.3000 	# SN0 TN0
pair_coeff		22  28   lj/gromacs/coul/gromacs	0.6274  4.3000 	# SN0 TNa
pair_coeff		22  29   lj/gromacs/coul/gromacs	0.7170  4.3000 	# SN0 TT2
pair_coeff		22  30   lj/gromacs/coul/gromacs	0.6274  4.3000 	# SN0 TT3
pair_coeff		22  31   lj/gromacs/coul/gromacs	0.7170  4.3000 	# SN0 TY2
pair_coeff		22  32   lj/gromacs/coul/gromacs	0.7170  4.3000 	# SN0 TY3
pair_coeff		23  23   lj/gromacs/coul/gromacs	0.5497  3.2000 	# TA2 TA2
pair_coeff		23  24   lj/gromacs/coul/gromacs	0.6453  3.2000 	# TA2 TA3
pair_coeff		23  25   lj/gromacs/coul/gromacs	0.9560  3.2000 	# TA2 TG2
pair_coeff		23  26   lj/gromacs/coul/gromacs	0.9560  3.2000 	# TA2 TG3
pair_coeff		23  27   lj/gromacs/coul/gromacs	0.6274  3.2000 	# TA2 TN0
pair_coeff		23  28   lj/gromacs/coul/gromacs	0.6274  3.2000 	# TA2 TNa
pair_coeff		23  29   lj/gromacs/coul/gromacs	1.1950  3.2000 	# TA2 TT2
pair_coeff		23  30   lj/gromacs/coul/gromacs	0.9560  3.2000 	# TA2 TT3
pair_coeff		23  31   lj/gromacs/coul/gromacs	0.6453  3.2000 	# TA2 TY2
pair_coeff		23  32   lj/gromacs/coul/gromacs	0.8365  3.2000 	# TA2 TY3
pair_coeff		24  24   lj/gromacs/coul/gromacs	0.6453  3.2000 	# TA3 TA3
pair_coeff		24  25   lj/gromacs/coul/gromacs	0.9560  3.2000 	# TA3 TG2
pair_coeff		24  26   lj/gromacs/coul/gromacs	0.9560  3.2000 	# TA3 TG3
pair_coeff		24  27   lj/gromacs/coul/gromacs	0.7170  3.2000 	# TA3 TN0
pair_coeff		24  28   lj/gromacs/coul/gromacs	0.8066  3.2000 	# TA3 TNa
pair_coeff		24  29   lj/gromacs/coul/gromacs	1.0755  3.2000 	# TA3 TT2
pair_coeff		24  30   lj/gromacs/coul/gromacs	1.1950  3.2000 	# TA3 TT3
pair_coeff		24  31   lj/gromacs/coul/gromacs	0.8365  3.2000 	# TA3 TY2
pair_coeff		24  32   lj/gromacs/coul/gromacs	0.6453  3.2000 	# TA3 TY3
pair_coeff		25  25   lj/gromacs/coul/gromacs	0.4780  3.2000 	# TG2 TG2
pair_coeff		25  26   lj/gromacs/coul/gromacs	0.4780  3.2000 	# TG2 TG3
pair_coeff		25  27   lj/gromacs/coul/gromacs	0.7170  3.2000 	# TG2 TN0
pair_coeff		25  28   lj/gromacs/coul/gromacs	0.8066  3.2000 	# TG2 TNa
pair_coeff		25  29   lj/gromacs/coul/gromacs	0.8365  3.2000 	# TG2 TT2
pair_coeff		25  30   lj/gromacs/coul/gromacs	0.7409  3.2000 	# TG2 TT3
pair_coeff		25  31   lj/gromacs/coul/gromacs	1.5535  3.2000 	# TG2 TY2
pair_coeff		25  32   lj/gromacs/coul/gromacs	1.4818  3.2000 	# TG2 TY3
pair_coeff		26  26   lj/gromacs/coul/gromacs	0.4780  3.2000 	# TG3 TG3
pair_coeff		26  27   lj/gromacs/coul/gromacs	0.7170  3.2000 	# TG3 TN0
pair_coeff		26  28   lj/gromacs/coul/gromacs	0.8066  3.2000 	# TG3 TNa
pair_coeff		26  29   lj/gromacs/coul/gromacs	0.7409  3.2000 	# TG3 TT2
pair_coeff		26  30   lj/gromacs/coul/gromacs	0.8365  3.2000 	# TG3 TT3
pair_coeff		26  31   lj/gromacs/coul/gromacs	1.4818  3.2000 	# TG3 TY2
pair_coeff		26  32   lj/gromacs/coul/gromacs	1.5535  3.2000 	# TG3 TY3
pair_coeff		27  27   lj/gromacs/coul/gromacs	0.6274  3.2000 	# TN0 TN0
pair_coeff		27  28   lj/gromacs/coul/gromacs	0.6274  3.2000 	# TN0 TNa
pair_coeff		27  29   lj/gromacs/coul/gromacs	0.7170  3.2000 	# TN0 TT2
pair_coeff		27  30   lj/gromacs/coul/gromacs	0.6274  3.2000 	# TN0 TT3
pair_coeff		27  31   lj/gromacs/coul/gromacs	0.7170  3.2000 	# TN0 TY2
pair_coeff		27  32   lj/gromacs/coul/gromacs	0.7170  3.2000 	# TN0 TY3
pair_coeff		28  28   lj/gromacs/coul/gromacs	0.7170  3.2000 	# TNa TNa
pair_coeff		28  29   lj/gromacs/coul/gromacs	0.8066  3.2000 	# TNa TT2
pair_coeff		28  30   lj/gromacs/coul/gromacs	0.7170  3.2000 	# TNa TT3
pair_coeff		28  31   lj/gromacs/coul/gromacs	0.8066  3.2000 	# TNa TY2
pair_coeff		28  32   lj/gromacs/coul/gromacs	0.8066  3.2000 	# TNa TY3
pair_coeff		29  29   lj/gromacs/coul/gromacs	1.0755  3.2000 	# TT2 TT2
pair_coeff		29  30   lj/gromacs/coul/gromacs	0.9560  3.2000 	# TT2 TT3
pair_coeff		29  31   lj/gromacs/coul/gromacs	1.1950  3.2000 	# TT2 TY2
pair_coeff		29  32   lj/gromacs/coul/gromacs	0.9560  3.2000 	# TT2 TY3
pair_coeff		30  30   lj/gromacs/coul/gromacs	0.9560  3.2000 	# TT3 TT3
pair_coeff		30  31   lj/gromacs/coul/gromacs	0.9560  3.2000 	# TT3 TY2
pair_coeff		30  32   lj/gromacs/coul/gromacs	1.1950  3.2000 	# TT3 TY3
pair_coeff		31  31   lj/gromacs/coul/gromacs	0.8365  3.2000 	# TY2 TY2
pair_coeff		31  32   lj/gromacs/coul/gromacs	0.6453  3.2000 	# TY2 TY3
pair_coeff		32  32   lj/gromacs/coul/gromacs	0.8365  3.2000 	# TY3 TY3

fix oldq all store/state 0 q	 # charge is non-zero , store charge for each atom
variable q atom f_oldq 				 # q@arrayAxslqT

### Set type                  ###################
### material_1 --> change 	  ###################
### material_2 --> non_change ###################

###################################  group  ##################################
group Backbone molecule == 4												##
29 atoms in group Backbone
group Bases molecule == 3													##
34 atoms in group Bases
group ${material_1} molecule 4 3											##
group DNA molecule 4 3											
63 atoms in group DNA
group ${material_2} molecule 2 1 											##
group Cancer_Cell molecule 2 1 											
258 atoms in group Cancer_Cell
group water_ions molecule 	 15 19 18 										##
6915 atoms in group water_ions
group ${material_1}_water_ions molecule 4 3 15 19 18						##
group DNA_water_ions molecule 4 3 15 19 18						
6978 atoms in group DNA_water_ions
##############################################################################

#pair_modify 	shift yes #martini not uses shifted potential
run_style respa 4 2 2 2  bond 1 angle 2 dihedral 3 pair 4 #]wtimestepjpAW[pv
Respa levels:
  1 = bond
  2 = angle
  3 = dihedral improper
  4 = pair kspace
timestep ${timesize}
timestep 10

#free energy between material_1 and material_2
compute m1m2E Bases group/group ${material_2} pair yes boundary no 		#PMLOOP
compute m1m2E Bases group/group Cancer_Cell pair yes boundary no 		
variable m1m2E equal c_m1m2E
variable globalE_G equal 1e10				# assign a super large initial value to be replaced after the first big BH loop

reset_timestep 0

## no need to keep this xyz
#shell cd ${FoldName}
#	dump 10 all custom 1 ini.xyz id mol type q x y z ix iy iz
#	run 0
#	undump 10
#shell cd ..

#do the initial relaxation before doing STUN_BH loop
print "doing system_opt.in"
doing system_opt.in
include system_opt.in
#!!!!!fix 1 all box/relax iso 0. # if PBC is true, you should use this command.

# The following is only for testing which optimzation method works for your current potential function.
# You should do the test when you conduct this script first time. Then check the log file to keep the workable methods.
############################################# Test begions

#fix 123 ${material_2} spring/self 10.0
#fix_modify 123 energy yes
reset_timestep 0
thermo 500
thermo_style custom step temp etotal v_m1m2E c_m1m2E

#min_style sd
#minimize 0.0 ${forcecon} ${opt_step} ${opt_step}

#min_style hftn
#minimize 0.0 ${forcecon} ${opt_step} ${opt_step}

#timestep ${timesize}
min_style cg
##minimize 0.0 1e-6 ${opt_step1} ${opt_step2} #1w~10w
minimize 0.0 0.0 ${opt_step1} ${opt_step2} #1w~10w
minimize 0.0 0.0 20000 ${opt_step2} 
minimize 0.0 0.0 20000 20000 
WARNING: Using 'neigh_modify every 1 delay 0 check yes' setting during minimization (../min.cpp:187)
Hybrid pair style last /omp style lj/gromacs/coul/gromacs
Last active /omp style is improper_style harmonic/omp
Neighbor list info ...
  update every 1 steps, delay 0 steps, check yes
  max neighbors/atom: 5000, page size: 100000
  master list distance cutoff = 14
  ghost atom cutoff = 14
  binsize = 7, bins = 10 11 9
  2 neighbor lists, perpetual/occasional/extra = 1 1 0
  (1) pair lj/gromacs/coul/gromacs, perpetual
      attributes: half, newton on, omp
      pair build: half/bin/newton/omp
      stencil: half/bin/3d
      bin: standard
  (2) compute group/group, occasional, copy from (1)
      attributes: half, newton on, omp
      pair build: copy
      stencil: none
      bin: none
Per MPI rank memory allocation (min/avg/max) = 36.38 | 36.38 | 36.38 Mbytes
Step Temp TotEng v_m1m2E c_m1m2E 
       0    237.35353   -13816.257   -123.40114   -123.40114 
     500    237.35353   -21257.527   -128.98719   -128.98719 
    1000    237.35353   -21576.815   -128.35395   -128.35395 
    1500    237.35353   -21750.104   -128.78886   -128.78886 
    2000    237.35353   -21821.293   -129.14795   -129.14795 
    2500    237.35353   -21881.927   -129.72018   -129.72018 
    3000    237.35353   -21928.747   -129.16813   -129.16813 
    3500    237.35353   -21964.907   -129.82683   -129.82683 
    4000    237.35353   -21995.491   -129.07555   -129.07555 
    4500    237.35353    -22020.23   -128.44832   -128.44832 
    5000    237.35353   -22055.337   -129.61718   -129.61718 
    5500    237.35353   -22072.161   -129.51454   -129.51454 
    6000    237.35353   -22082.472   -129.63583   -129.63583 
    6500    237.35353   -22096.953   -130.01297   -130.01297 
    7000    237.35353    -22114.69   -130.37823   -130.37823 
    7500    237.35353   -22136.307    -130.4075    -130.4075 
    8000    237.35353   -22161.297   -131.09715   -131.09715 
    8500    237.35353   -22170.758   -131.55571   -131.55571 
    9000    237.35353   -22180.162   -131.40034   -131.40034 
    9500    237.35353    -22186.06   -130.94983   -130.94983 
   10000    237.35353   -22196.466   -130.98128   -130.98128 
   10008    237.35353   -22196.531   -130.98103   -130.98103 
Loop time of 68.459 on 12 procs for 10008 steps with 7236 atoms

1197.8% CPU use with 1 MPI tasks x 12 OpenMP threads

Minimization stats:
  Stopping criterion = max force evaluations
  Energy initial, next-to-last, final = 
     -18935.0610062683  -27315.3272454526   -27315.334820881
  Force two-norm initial, final = 483.23027 2.5652072
  Force max component initial, final = 32.913119 0.43730918
  Final line search alpha, max atom move = 0.063733906 0.027871422
  Iterations, force evaluations = 10008 20000

MPI task timing breakdown:
Section |  min time  |  avg time  |  max time  |%varavg| %total
---------------------------------------------------------------
Pair    | 61.115     | 61.115     | 61.115     |   0.0 | 89.27
Bond    | 1.8866     | 1.8866     | 1.8866     |   0.0 |  2.76
Neigh   | 0.95173    | 0.95173    | 0.95173    |   0.0 |  1.39
Comm    | 1.3193     | 1.3193     | 1.3193     |   0.0 |  1.93
Output  | 0.004845   | 0.004845   | 0.004845   |   0.0 |  0.01
Modify  | 0.76263    | 0.76263    | 0.76263    |   0.0 |  1.11
Other   |            | 2.419      |            |       |  3.53

Nlocal:        7236.00 ave        7236 max        7236 min
Histogram: 1 0 0 0 0 0 0 0 0 0
Nghost:        13100.0 ave       13100 max       13100 min
Histogram: 1 0 0 0 0 0 0 0 0 0
Neighs:    1.08391e+06 ave 1.08391e+06 max 1.08391e+06 min
Histogram: 1 0 0 0 0 0 0 0 0 0

Total # of neighbors = 1083913
Ave neighs/atom = 149.79450
Ave special neighs/atom = 2.0359315
Neighbor list builds = 256
Dangerous builds = 0

reset_timestep 0
timestep ${fire_timesize}
timestep 50
velocity all zero linear
min_style fire/old
minimize 0.0 0.0 ${fire_step} ${fire_step}
minimize 0.0 0.0 1000 ${fire_step}
minimize 0.0 0.0 1000 1000
WARNING: Using 'neigh_modify every 1 delay 0 check yes' setting during minimization (../min.cpp:187)
Hybrid pair style last /omp style lj/gromacs/coul/gromacs
Last active /omp style is improper_style harmonic/omp
Per MPI rank memory allocation (min/avg/max) = 41.00 | 41.00 | 41.00 Mbytes
Step Temp TotEng v_m1m2E c_m1m2E 
       0            0   -27315.335   -130.98103   -130.98103 
     500 1.7092293e-07   -27315.467   -130.97819   -130.97819 
    1000 1.1376061e-05   -27315.508   -130.97645   -130.97645 
Loop time of 3.48649 on 12 procs for 1000 steps with 7236 atoms

1197.6% CPU use with 1 MPI tasks x 12 OpenMP threads

Minimization stats:
  Stopping criterion = max iterations
  Energy initial, next-to-last, final = 
      -27315.334820881  -27315.5086684888  -27315.5087167202
  Force two-norm initial, final = 2.5652072 0.22232402
  Force max component initial, final = 0.43730918 0.025593950
  Final line search alpha, max atom move = 0.0000000 0.0000000
  Iterations, force evaluations = 1000 1000

MPI task timing breakdown:
Section |  min time  |  avg time  |  max time  |%varavg| %total
---------------------------------------------------------------
Pair    | 3.1566     | 3.1566     | 3.1566     |   0.0 | 90.54
Bond    | 0.092228   | 0.092228   | 0.092228   |   0.0 |  2.65
Neigh   | 0          | 0          | 0          |   0.0 |  0.00
Comm    | 0.06183    | 0.06183    | 0.06183    |   0.0 |  1.77
Output  | 0.00044506 | 0.00044506 | 0.00044506 |   0.0 |  0.01
Modify  | 0.038285   | 0.038285   | 0.038285   |   0.0 |  1.10
Other   |            | 0.1371     |            |       |  3.93

Nlocal:        7236.00 ave        7236 max        7236 min
Histogram: 1 0 0 0 0 0 0 0 0 0
Nghost:        13098.0 ave       13098 max       13098 min
Histogram: 1 0 0 0 0 0 0 0 0 0
Neighs:    1.08383e+06 ave 1.08383e+06 max 1.08383e+06 min
Histogram: 1 0 0 0 0 0 0 0 0 0

Total # of neighbors = 1083833
Ave neighs/atom = 149.78344
Ave special neighs/atom = 2.0359315
Neighbor list builds = 0
Dangerous builds = 0

#back to regular timestep size
timestep ${timesize}
timestep 10

#unfix 123

#velocity all zero linear

#min_style quickmin
#minimize 0.0 ${forcecon} ${opt_step} ${opt_step}
#velocity all zero linear
########################################### the end of test
print "doing equilibrium"
doing equilibrium
reset_timestep 0
velocity all create 300.0 ${seed} mom yes rot yes dist gaussian
velocity all create 300.0 91002 mom yes rot yes dist gaussian
velocity all scale 300.0
fix 123 ${material_2} spring/self 10.0
fix 123 Cancer_Cell spring/self 10.0
fix_modify 123 energy yes
###shake bond
fix 4 all shake 0.0001 20 0 b 94 95
       0 = # of size 2 clusters
    2300 = # of size 3 clusters
       0 = # of size 4 clusters
       0 = # of frozen angles
  find clusters CPU = 0.002 seconds
fix 1 all nvt temp 300 300 ${Tdamp}
fix 1 all nvt temp 300 300 1000
thermo_style custom step temp etotal c_m1m2E v_m1m2E
thermo 100
run		${Eq_step}
run		30000
Hybrid pair style last /omp style lj/gromacs/coul/gromacs
Last active /omp style is improper_style harmonic/omp
Per MPI rank memory allocation (min/avg/max) = 46.50 | 46.50 | 46.50 Mbytes
Step Temp TotEng c_m1m2E v_m1m2E 
       0    380.67816   -21191.115   -130.97645   -130.97645 
     100     152.1075   -21485.761   -126.57741   -126.57741 
     200    162.98486   -20924.974    -126.5533    -126.5533 
     300    178.79015   -20266.066   -126.03563   -126.03563 
     400    193.44533   -19530.937   -127.15983   -127.15983 
     500    213.62009    -18739.53    -122.0866    -122.0866 
     600    228.90324   -17913.392    -125.1039    -125.1039 
     700    246.77116   -17075.578    -122.7953    -122.7953 
     800     260.4108   -16248.706   -127.46537   -127.46537 
     900    274.24835   -15458.577   -119.70757   -119.70757 
    1000    288.53419   -14753.619   -118.50685   -118.50685 
    1100    301.02607   -14172.736   -116.25176   -116.25176 
    1200    304.56749   -13805.199   -120.02278   -120.02278 
    1300    310.95079    -13688.81   -120.16109   -120.16109 
    1400    302.61666   -13846.325    -121.2393    -121.2393 
    1500    295.47409   -14049.099   -119.08173   -119.08173 
    1600    296.82369   -14122.435   -123.69571   -123.69571 
    1700    295.33201   -14042.883   -119.46256   -119.46256 
    1800    299.76757   -13872.787   -126.95082   -126.95082 
    1900    304.12051    -13737.74   -118.97662   -118.97662 
    2000    303.94859   -13740.423   -122.74852   -122.74852 
    2100    296.10787   -13866.818    -117.7404    -117.7404 
    2200     297.9493   -13954.261   -118.14569   -118.14569 
    2300    297.01629   -13943.825   -119.51967   -119.51967 
    2400    304.19228   -13856.234    -117.5462    -117.5462 
    2500    300.12913   -13788.041   -120.51215   -120.51215 
    2600    302.64661   -13743.302   -116.53153   -116.53153 
    2700    305.72878    -13752.58   -125.17937   -125.17937 
    2800    301.16703   -13823.699   -118.83642   -118.83642 
    2900    298.13722   -13900.053   -116.46431   -116.46431 
    3000    299.79247   -13914.559   -112.70436   -112.70436 
    3100    297.38437   -13861.878   -121.97762   -121.97762 
    3200    301.72721   -13782.876   -117.49619   -117.49619 
    3300    302.03069   -13743.268   -124.01379   -124.01379 
    3400    299.08988   -13756.413   -117.08107   -117.08107 
    3500     301.6358   -13753.946   -117.21899   -117.21899 
    3600    308.46628   -13786.482   -120.45585   -120.45585 
    3700    302.43748   -13871.117   -119.92341   -119.92341 
    3800    297.72269   -13899.114   -120.68854   -120.68854 
    3900    301.47406   -13861.558   -116.44375   -116.44375 
    4000    302.18938   -13786.653    -115.8055    -115.8055 
    4100     300.7189   -13726.179   -115.77998   -115.77998 
    4200    301.07789   -13730.151   -117.21938   -117.21938 
    4300    302.71897   -13806.828   -119.82895   -119.82895 
    4400    297.89633       -13883   -119.11296   -119.11296 
    4500     297.9864   -13904.944   -123.40136   -123.40136 
    4600    298.08848   -13877.848   -117.92398   -117.92398 
    4700     299.6861   -13844.532   -119.60034   -119.60034 
    4800    303.28375   -13812.106   -116.77927   -116.77927 
    4900    301.77952    -13814.05   -121.38685   -121.38685 
    5000    298.27338   -13873.052   -116.97595   -116.97595 
    5100    296.24161   -13914.092   -119.32472   -119.32472 
    5200    300.17538   -13917.571    -118.1628    -118.1628 
    5300    295.24219     -13874.1   -114.38004   -114.38004 
    5400    300.73629   -13769.916   -122.90431   -122.90431 
    5500     301.2422   -13714.612   -115.64738   -115.64738 
    5600    304.74244   -13750.397   -120.87704   -120.87704 
    5700    299.84612   -13867.004    -118.5003    -118.5003 
    5800    297.77891   -13922.824    -117.9215    -117.9215 
    5900    295.72454   -13911.824   -121.86029   -121.86029 
    6000    300.29947   -13812.896   -119.87595   -119.87595 
    6100    302.66918   -13726.642   -117.63518   -117.63518 
    6200    303.26126   -13760.844   -122.48779   -122.48779 
    6300    298.30948   -13856.944    -121.5624    -121.5624 
    6400    296.76665   -13943.113   -117.36445   -117.36445 
    6500    300.84836   -13971.483   -115.65362   -115.65362 
    6600    292.80061   -13931.862   -120.80473   -120.80473 
    6700    301.38126   -13824.955   -123.78472   -123.78472 
    6800    308.93172   -13745.074   -121.53254   -121.53254 
    6900     304.3733   -13777.995   -121.48429   -121.48429 
    7000    297.07336   -13837.237   -121.15388   -121.15388 
    7100    299.46749   -13866.216   -120.21254   -120.21254 
    7200    299.41752   -13897.665   -119.70148   -119.70148 
    7300    299.19007   -13893.806   -116.32317   -116.32317 
    7400     297.1841   -13822.788   -120.49247   -120.49247 
    7500    301.48606   -13758.694   -115.93072   -115.93072 
    7600    300.58064   -13751.082   -120.33453   -120.33453 
    7700    296.40491   -13801.787    -118.4134    -118.4134 
    7800    294.71981   -13846.521   -101.91903   -101.91903 
    7900    297.83642   -13879.974   -122.22661   -122.22661 
    8000    298.04191   -13863.628   -115.79452   -115.79452 
    8100    295.31705   -13823.748   -119.68056   -119.68056 
    8200    297.61911    -13764.53   -117.04467   -117.04467 
    8300    300.71291   -13752.465   -117.79354   -117.79354 
    8400    301.15137   -13789.691   -115.28095   -115.28095 
    8500    294.91407   -13892.366   -123.13635   -123.13635 
    8600    294.82856   -13953.156   -111.20406   -111.20406 
    8700    296.63547   -13920.319    -116.1457    -116.1457 
    8800    303.61286   -13838.111    -113.6092    -113.6092 
    8900    304.38683   -13786.926   -121.91097   -121.91097 
    9000    302.56683   -13796.324   -116.34888   -116.34888 
    9100    297.79621   -13854.733   -117.46669   -117.46669 
    9200    299.94142   -13859.266   -115.73329   -115.73329 
    9300    299.73969   -13797.543   -118.41169   -118.41169 
    9400    301.96058   -13795.506   -119.91914   -119.91914 
    9500    299.55714   -13837.983   -115.43978   -115.43978 
    9600    294.45815   -13814.334   -117.41739   -117.41739 
    9700    297.84532   -13749.721   -121.61657   -121.61657 
    9800    302.02777   -13710.025   -122.45936   -122.45936 
    9900    300.31047   -13751.799   -113.16966   -113.16966 
   10000     299.2181   -13856.127   -116.95514   -116.95514 
   10100    297.14463   -13932.378    -115.5433    -115.5433 
   10200    296.77522   -13930.958   -119.50326   -119.50326 
   10300    300.32522   -13874.188   -121.28243   -121.28243 
   10400    301.33892   -13791.364   -119.92596   -119.92596 
   10500     306.8745   -13727.226   -115.21588   -115.21588 
   10600    302.25254   -13674.089   -123.89721   -123.89721 
   10700    305.68788   -13634.639   -114.91007   -114.91007 
   10800    298.01291   -13780.259   -118.25787   -118.25787 
   10900    300.20037   -13844.205    -120.5005    -120.5005 
   11000    303.24499   -13901.131   -121.45949   -121.45949 
   11100    292.73464   -13963.903   -121.13676   -121.13676 
   11200    296.02577   -13883.125   -118.38327   -118.38327 
   11300    302.13872   -13765.643   -116.23315   -116.23315 
   11400    308.29579   -13802.374   -117.46723   -117.46723 
   11500     298.0219   -13889.149   -123.55195   -123.55195 
   11600     295.5663   -13884.475    -118.4399    -118.4399 
   11700    300.58693   -13783.005   -118.49367   -118.49367 
   11800    307.19948   -13689.195   -117.05627   -117.05627 
   11900    303.05302   -13793.233    -117.4839    -117.4839 
   12000    295.84017   -13922.925    -124.2662    -124.2662 
   12100    294.91537   -13865.107   -121.19131   -121.19131 
   12200    304.16415   -13754.398   -121.53075   -121.53075 
   12300     302.4842   -13728.423   -121.49434   -121.49434 
   12400    297.99532   -13813.204   -120.14463   -120.14463 
   12500    297.31915   -13898.537   -120.17686   -120.17686 
   12600    298.31182   -13913.802   -120.20624   -120.20624 
   12700    298.08336   -13860.665   -116.12864   -116.12864 
   12800    297.98385   -13812.351   -114.89184   -114.89184 
   12900    296.96754   -13801.667   -103.35038   -103.35038 
   13000    300.42174   -13780.414   -115.59074   -115.59074 
   13100    301.27198   -13780.415   -114.13402   -114.13402 
   13200    301.28659   -13852.195   -112.30363   -112.30363 
   13300    296.81715   -13938.304   -115.87949   -115.87949 
   13400    301.01035    -13951.62   -101.50629   -101.50629 
   13500    300.90099   -13879.428   -110.62955   -110.62955 
   13600    301.36893   -13765.222   -109.44459   -109.44459 
   13700    302.35229   -13727.405   -116.45473   -116.45473 
   13800    301.36769    -13764.26   -107.79119   -107.79119 
   13900    298.17782   -13873.037   -110.62071   -110.62071 
   14000    290.61908   -13954.818   -109.61784   -109.61784 
   14100    302.46496   -13896.786   -111.38068   -111.38068 
   14200    299.08333   -13861.945   -113.36243   -113.36243 
   14300    300.06363   -13864.641   -116.45007   -116.45007 
   14400    299.42204   -13888.749   -114.89928   -114.89928 
   14500    298.44275   -13879.569   -109.55077   -109.55077 
   14600     304.5507   -13764.852   -114.68097   -114.68097 
   14700    309.38412   -13705.248   -111.12679   -111.12679 
   14800    303.32756   -13765.357   -111.13693   -111.13693 
   14900    292.32306   -13915.543   -106.55137   -106.55137 
   15000     298.3914   -13903.223   -108.23056   -108.23056 
   15100    301.03328   -13868.286   -110.45812   -110.45812 
   15200    296.95427   -13798.874   -107.75126   -107.75126 
   15300    308.17739   -13670.021   -114.28939   -114.28939 
   15400    304.30603   -13674.476   -112.47963   -112.47963 
   15500    301.45104   -13738.585   -106.75197   -106.75197 
   15600    296.96469   -13815.156   -104.01351   -104.01351 
   15700    300.90081     -13840.2   -113.99053   -113.99053 
   15800    299.63546   -13849.761   -113.61092   -113.61092 
   15900    302.32047   -13881.458   -106.98583   -106.98583 
   16000    294.74145   -13917.992   -106.48253   -106.48253 
   16100    301.80556   -13854.124   -113.18553   -113.18553 
   16200    300.88592   -13763.027   -109.94227   -109.94227 
   16300     301.9531   -13726.139   -110.50812   -110.50812 
   16400    298.21257   -13834.627   -105.51794   -105.51794 
   16500    292.90728   -13932.389   -104.40704   -104.40704 
   16600    300.70251   -13889.167   -104.10246   -104.10246 
   16700     299.3571   -13840.327   -103.26366   -103.26366 
   16800    306.67391   -13780.498   -107.82556   -107.82556 
   16900    303.64577   -13685.694    -107.2486    -107.2486 
   17000    306.67685    -13626.23   -101.42767   -101.42767 
   17100    299.39928   -13725.267   -108.32719   -108.32719 
   17200    294.44932   -13825.876   -107.43081   -107.43081 
   17300    296.52106   -13837.394   -104.68847   -104.68847 
   17400     299.7641   -13838.022   -105.66237   -105.66237 
   17500    299.61501   -13881.952   -102.71175   -102.71175 
   17600    297.06794   -13983.635   -102.40933   -102.40933 
   17700      294.717   -13989.252   -104.94115   -104.94115 
   17800     300.0796   -13847.777   -103.44657   -103.44657 
   17900    301.20511   -13824.782   -99.872657   -99.872657 
   18000     301.5395   -13827.483   -105.18559   -105.18559 
   18100    295.50106   -13826.391   -105.33724   -105.33724 
   18200    300.27328   -13722.379   -106.68198   -106.68198 
   18300    306.01495   -13627.265   -104.48465   -104.48465 
   18400    304.53134    -13683.57     -108.628     -108.628 
   18500    304.28272   -13788.454   -99.311786   -99.311786 
   18600    296.22087   -13831.474   -100.60936   -100.60936 
   18700    304.60813   -13840.048   -106.63623   -106.63623 
   18800    301.39726   -13910.323   -105.83256   -105.83256 
   18900    295.33261   -14025.284   -105.46353   -105.46353 
   19000    294.67977   -13980.421   -102.71254   -102.71254 
   19100    301.59551   -13840.187   -106.42885   -106.42885 
   19200    300.59037   -13818.679    -104.5561    -104.5561 
   19300    302.00797   -13817.254   -98.847119   -98.847119 
   19400    302.50314   -13889.721   -105.50916   -105.50916 
   19500    296.61528   -13969.984   -111.88588   -111.88588 
   19600     298.6512   -13965.509   -107.36856   -107.36856 
   19700    303.15092   -13805.961    -110.1589    -110.1589 
   19800    295.00989   -13779.456   -109.96213   -109.96213 
   19900     301.4927   -13818.504    -109.0165    -109.0165 
   20000    301.61252   -13911.698   -109.27237   -109.27237 
   20100    297.91424   -13932.968   -108.85291   -108.85291 
   20200    302.33361   -13903.586   -111.76701   -111.76701 
   20300    299.64478   -13881.307   -100.66198   -100.66198 
   20400    301.68299   -13822.107   -106.82809   -106.82809 
   20500    299.82043   -13780.609   -102.56765   -102.56765 
   20600    299.42704    -13797.02   -111.11931   -111.11931 
   20700    302.46438   -13891.391   -98.805577   -98.805577 
   20800    298.44231   -13961.734   -110.37208   -110.37208 
   20900    294.19458   -13884.923   -109.42096   -109.42096 
   21000    294.76821   -13784.842   -102.70419   -102.70419 
   21100    304.67307   -13766.034   -107.98164   -107.98164 
   21200    302.07021   -13785.953    -109.0664    -109.0664 
   21300    296.02309    -13873.41   -110.10604   -110.10604 
   21400     297.5378   -13967.139   -115.54368   -115.54368 
   21500    298.93616   -13913.731   -106.78579   -106.78579 
   21600    302.89524   -13759.894   -106.25351   -106.25351 
   21700    298.54855   -13759.564   -110.73112   -110.73112 
   21800    302.13413   -13793.052   -104.67777   -104.67777 
   21900    298.77825   -13844.046   -103.65439   -103.65439 
   22000    295.77302   -13882.463   -106.99645   -106.99645 
   22100    297.85707   -13897.378   -110.66393   -110.66393 
   22200    301.82033    -13814.44   -105.19955   -105.19955 
   22300    302.29546    -13754.66   -104.56725   -104.56725 
   22400    299.91068   -13796.027   -98.351609   -98.351609 
   22500    299.32585   -13913.453   -105.32592   -105.32592 
   22600     297.1511    -13972.91   -100.64605   -100.64605 
   22700    298.69933   -13917.406   -103.37113   -103.37113 
   22800    304.15755   -13759.732   -106.12544   -106.12544 
   22900    302.82354   -13766.654   -102.96321   -102.96321 
   23000    296.13624   -13840.281   -106.99839   -106.99839 
   23100    293.06682    -13872.87   -107.95948   -107.95948 
   23200    294.27427   -13862.327   -108.08068   -108.08068 
   23300    296.25755   -13769.877   -108.62022   -108.62022 
   23400    303.11469   -13699.814    -104.2368    -104.2368 
   23500     306.4911   -13728.671   -107.42269   -107.42269 
   23600     298.1832   -13857.145   -110.50722   -110.50722 
   23700     297.5059   -13895.458   -103.93086   -103.93086 
   23800     302.3056   -13887.496   -102.75622   -102.75622 
   23900    296.06202   -13867.337   -102.32839   -102.32839 
   24000    304.74306   -13744.674   -98.299672   -98.299672 
   24100    305.67069   -13670.948   -103.37571   -103.37571 
   24200    300.45581   -13727.977   -100.18384   -100.18384 
   24300    298.01851   -13781.817   -99.583977   -99.583977 
   24400    302.88044   -13857.652   -102.04387   -102.04387 
   24500    297.10231   -13896.136   -99.241579   -99.241579 
   24600    293.92052   -13913.731   -97.159477   -97.159477 
   24700    302.48923   -13757.076   -100.29934   -100.29934 
   24800    299.86896   -13702.266   -100.83567   -100.83567 
   24900    303.74399   -13745.582    -102.6998    -102.6998 
   25000    302.11168    -13852.82   -103.95573   -103.95573 
   25100    296.95159   -13916.249   -98.656849   -98.656849 
   25200    298.74896   -13923.048   -101.49461   -101.49461 
   25300    300.41254   -13890.749   -103.60066   -103.60066 
   25400    303.58505   -13780.174   -101.99492   -101.99492 
   25500    302.09854   -13741.878   -104.35795   -104.35795 
   25600    300.09067   -13750.145   -103.18542   -103.18542 
   25700     299.4381   -13805.516   -108.67137   -108.67137 
   25800    300.88933   -13863.874   -107.19958   -107.19958 
   25900    300.31251   -13853.104   -105.10742   -105.10742 
   26000    303.62437    -13739.27   -112.06789   -112.06789 
   26100    306.84731   -13670.076   -109.87677   -109.87677 
   26200    300.18384   -13751.869   -111.08908   -111.08908 
[...]
pair_coeff		12  14   lj/gromacs/coul/gromacs	0.6274  4.3000 	# SC5 SP1
pair_coeff		12  15   lj/gromacs/coul/gromacs	0.7039  4.7000 	# SC5 POL
pair_coeff		12  18   lj/gromacs/coul/gromacs	0.8365  4.7000 	# SC5 Qa
pair_coeff		12  19   lj/gromacs/coul/gromacs	0.8365  4.7000 	# SC5 Qd
pair_coeff		12  20   lj/gromacs/coul/gromacs	0.8365  4.7000 	# SC5 Q0
pair_coeff		12  21   lj/gromacs/coul/gromacs	0.5557  4.3000 	# SC5 SC2
pair_coeff		12  22   lj/gromacs/coul/gromacs	0.6274  4.3000 	# SC5 SN0
pair_coeff		12  23   lj/gromacs/coul/gromacs	0.6274  4.3000 	# SC5 TA2
pair_coeff		12  24   lj/gromacs/coul/gromacs	0.6274  4.3000 	# SC5 TA3
pair_coeff		12  25   lj/gromacs/coul/gromacs	0.6274  4.3000 	# SC5 TG2
pair_coeff		12  26   lj/gromacs/coul/gromacs	0.6274  4.3000 	# SC5 TG3
pair_coeff		12  27   lj/gromacs/coul/gromacs	0.6274  4.3000 	# SC5 TN0
pair_coeff		12  28   lj/gromacs/coul/gromacs	0.6274  4.3000 	# SC5 TNa
pair_coeff		12  29   lj/gromacs/coul/gromacs	0.6274  4.3000 	# SC5 TT2
pair_coeff		12  30   lj/gromacs/coul/gromacs	0.6274  4.3000 	# SC5 TT3
pair_coeff		12  31   lj/gromacs/coul/gromacs	0.6274  4.3000 	# SC5 TY2
pair_coeff		12  32   lj/gromacs/coul/gromacs	0.6274  4.3000 	# SC5 TY3
pair_coeff		13  13   lj/gromacs/coul/gromacs	0.7170  4.3000 	# SNd SNd
pair_coeff		13  14   lj/gromacs/coul/gromacs	0.8066  4.3000 	# SNd SP1
pair_coeff		13  15   lj/gromacs/coul/gromacs	0.9082  4.7000 	# SNd POL
pair_coeff		13  18   lj/gromacs/coul/gromacs	1.3384  4.7000 	# SNd Qa
pair_coeff		13  19   lj/gromacs/coul/gromacs	1.0755  4.7000 	# SNd Qd
pair_coeff		13  20   lj/gromacs/coul/gromacs	1.0755  4.7000 	# SNd Q0
pair_coeff		13  21   lj/gromacs/coul/gromacs	0.4840  4.3000 	# SNd SC2
pair_coeff		13  22   lj/gromacs/coul/gromacs	0.6274  4.3000 	# SNd SN0
pair_coeff		13  23   lj/gromacs/coul/gromacs	0.6274  4.3000 	# SNd TA2
pair_coeff		13  24   lj/gromacs/coul/gromacs	0.8066  4.3000 	# SNd TA3
pair_coeff		13  25   lj/gromacs/coul/gromacs	0.8066  4.3000 	# SNd TG2
pair_coeff		13  26   lj/gromacs/coul/gromacs	0.8066  4.3000 	# SNd TG3
pair_coeff		13  27   lj/gromacs/coul/gromacs	0.6274  4.3000 	# SNd TN0
pair_coeff		13  28   lj/gromacs/coul/gromacs	0.8066  4.3000 	# SNd TNa
pair_coeff		13  29   lj/gromacs/coul/gromacs	0.8066  4.3000 	# SNd TT2
pair_coeff		13  30   lj/gromacs/coul/gromacs	0.8066  4.3000 	# SNd TT3
pair_coeff		13  31   lj/gromacs/coul/gromacs	0.8066  4.3000 	# SNd TY2
pair_coeff		13  32   lj/gromacs/coul/gromacs	0.8066  4.3000 	# SNd TY3
pair_coeff		14  14   lj/gromacs/coul/gromacs	0.8066  4.3000 	# SP1 SP1
pair_coeff		14  15   lj/gromacs/coul/gromacs	1.0217  4.7000 	# SP1 POL
pair_coeff		14  18   lj/gromacs/coul/gromacs	1.3384  4.7000 	# SP1 Qa
pair_coeff		14  19   lj/gromacs/coul/gromacs	1.3384  4.7000 	# SP1 Qd
pair_coeff		14  20   lj/gromacs/coul/gromacs	1.0755  4.7000 	# SP1 Q0
pair_coeff		14  21   lj/gromacs/coul/gromacs	0.5557  4.3000 	# SP1 SC2
pair_coeff		14  22   lj/gromacs/coul/gromacs	0.7170  4.3000 	# SP1 SN0
pair_coeff		14  23   lj/gromacs/coul/gromacs	0.7170  4.3000 	# SP1 TA2
pair_coeff		14  24   lj/gromacs/coul/gromacs	0.8066  4.3000 	# SP1 TA3
pair_coeff		14  25   lj/gromacs/coul/gromacs	0.8066  4.3000 	# SP1 TG2
pair_coeff		14  26   lj/gromacs/coul/gromacs	0.8066  4.3000 	# SP1 TG3
pair_coeff		14  27   lj/gromacs/coul/gromacs	0.7170  4.3000 	# SP1 TN0
pair_coeff		14  28   lj/gromacs/coul/gromacs	0.8066  4.3000 	# SP1 TNa
pair_coeff		14  29   lj/gromacs/coul/gromacs	0.8066  4.3000 	# SP1 TT2
pair_coeff		14  30   lj/gromacs/coul/gromacs	0.8066  4.3000 	# SP1 TT3
pair_coeff		14  31   lj/gromacs/coul/gromacs	0.8066  4.3000 	# SP1 TY2
pair_coeff		14  32   lj/gromacs/coul/gromacs	0.8066  4.3000 	# SP1 TY3
pair_coeff		15  15   lj/gromacs/coul/gromacs	0.9560  4.7000 	# POL POL
pair_coeff		15  18   lj/gromacs/coul/gromacs	1.1950  4.7000 	# POL Qa
pair_coeff		15  19   lj/gromacs/coul/gromacs	1.1950  4.7000 	# POL Qd
pair_coeff		15  20   lj/gromacs/coul/gromacs	1.0755  4.7000 	# POL Q0
pair_coeff		15  21   lj/gromacs/coul/gromacs	0.5222  4.7000 	# POL SC2
pair_coeff		15  22   lj/gromacs/coul/gromacs	0.7947  4.7000 	# POL SN0
pair_coeff		15  23   lj/gromacs/coul/gromacs	0.7947  4.7000 	# POL TA2
pair_coeff		15  24   lj/gromacs/coul/gromacs	1.0217  4.7000 	# POL TA3
pair_coeff		15  25   lj/gromacs/coul/gromacs	1.0217  4.7000 	# POL TG2
pair_coeff		15  26   lj/gromacs/coul/gromacs	1.0217  4.7000 	# POL TG3
pair_coeff		15  27   lj/gromacs/coul/gromacs	0.7947  4.7000 	# POL TN0
pair_coeff		15  28   lj/gromacs/coul/gromacs	0.9082  4.7000 	# POL TNa
pair_coeff		15  29   lj/gromacs/coul/gromacs	1.0217  4.7000 	# POL TT2
pair_coeff		15  30   lj/gromacs/coul/gromacs	0.9082  4.7000 	# POL TT3
pair_coeff		15  31   lj/gromacs/coul/gromacs	1.0217  4.7000 	# POL TY2
pair_coeff		15  32   lj/gromacs/coul/gromacs	1.0217  4.7000 	# POL TY3
pair_coeff		18  18   lj/gromacs/coul/gromacs	0.8365  4.7000 	# Qa Qa
pair_coeff		18  19   lj/gromacs/coul/gromacs	0.9560  4.7000 	# Qa Qd
pair_coeff		18  20   lj/gromacs/coul/gromacs	0.5497  4.7000 	# Qa Q0
pair_coeff		18  21   lj/gromacs/coul/gromacs	0.5497  4.7000 	# Qa SC2
pair_coeff		18  22   lj/gromacs/coul/gromacs	0.9560  4.7000 	# Qa SN0
pair_coeff		18  23   lj/gromacs/coul/gromacs	0.9560  4.7000 	# Qa TA2
pair_coeff		18  24   lj/gromacs/coul/gromacs	1.3384  4.7000 	# Qa TA3
pair_coeff		18  25   lj/gromacs/coul/gromacs	1.3384  4.7000 	# Qa TG2
pair_coeff		18  26   lj/gromacs/coul/gromacs	1.3384  4.7000 	# Qa TG3
pair_coeff		18  27   lj/gromacs/coul/gromacs	0.9560  4.7000 	# Qa TN0
pair_coeff		18  28   lj/gromacs/coul/gromacs	1.0755  4.7000 	# Qa TNa
pair_coeff		18  29   lj/gromacs/coul/gromacs	1.3384  4.7000 	# Qa TT2
pair_coeff		18  30   lj/gromacs/coul/gromacs	1.0755  4.7000 	# Qa TT3
pair_coeff		18  31   lj/gromacs/coul/gromacs	1.3384  4.7000 	# Qa TY2
pair_coeff		18  32   lj/gromacs/coul/gromacs	1.3384  4.7000 	# Qa TY3
pair_coeff		19  19   lj/gromacs/coul/gromacs	0.8365  4.7000 	# Qd Qd
pair_coeff		19  20   lj/gromacs/coul/gromacs	0.5497  4.7000 	# Qd Q0
pair_coeff		19  21   lj/gromacs/coul/gromacs	0.5497  4.7000 	# Qd SC2
pair_coeff		19  22   lj/gromacs/coul/gromacs	0.9560  4.7000 	# Qd SN0
pair_coeff		19  23   lj/gromacs/coul/gromacs	0.9560  4.7000 	# Qd TA2
pair_coeff		19  24   lj/gromacs/coul/gromacs	1.3384  4.7000 	# Qd TA3
pair_coeff		19  25   lj/gromacs/coul/gromacs	1.3384  4.7000 	# Qd TG2
pair_coeff		19  26   lj/gromacs/coul/gromacs	1.3384  4.7000 	# Qd TG3
pair_coeff		19  27   lj/gromacs/coul/gromacs	0.9560  4.7000 	# Qd TN0
pair_coeff		19  28   lj/gromacs/coul/gromacs	1.3384  4.7000 	# Qd TNa
pair_coeff		19  29   lj/gromacs/coul/gromacs	1.3384  4.7000 	# Qd TT2
pair_coeff		19  30   lj/gromacs/coul/gromacs	1.3384  4.7000 	# Qd TT3
pair_coeff		19  31   lj/gromacs/coul/gromacs	1.3384  4.7000 	# Qd TY2
pair_coeff		19  32   lj/gromacs/coul/gromacs	1.3384  4.7000 	# Qd TY3
pair_coeff		20  20   lj/gromacs/coul/gromacs	0.8365  4.7000 	# Q0 Q0
pair_coeff		20  21   lj/gromacs/coul/gromacs	0.5497  4.7000 	# Q0 SC2
pair_coeff		20  22   lj/gromacs/coul/gromacs	0.9560  4.7000 	# Q0 SN0
pair_coeff		20  23   lj/gromacs/coul/gromacs	0.9560  4.7000 	# Q0 TA2
pair_coeff		20  24   lj/gromacs/coul/gromacs	1.0755  4.7000 	# Q0 TA3
pair_coeff		20  25   lj/gromacs/coul/gromacs	1.0755  4.7000 	# Q0 TG2
pair_coeff		20  26   lj/gromacs/coul/gromacs	1.1950  4.7000 	# Q0 TG3
pair_coeff		20  27   lj/gromacs/coul/gromacs	0.9560  4.7000 	# Q0 TN0
pair_coeff		20  28   lj/gromacs/coul/gromacs	1.0755  4.7000 	# Q0 TNa
pair_coeff		20  29   lj/gromacs/coul/gromacs	1.1950  4.7000 	# Q0 TT2
pair_coeff		20  30   lj/gromacs/coul/gromacs	1.0755  4.7000 	# Q0 TT3
pair_coeff		20  31   lj/gromacs/coul/gromacs	1.1950  4.7000 	# Q0 TY2
pair_coeff		20  32   lj/gromacs/coul/gromacs	1.0755  4.7000 	# Q0 TY3
pair_coeff		21  21   lj/gromacs/coul/gromacs	0.6274  4.3000 	# SC2 SC2
pair_coeff		21  22   lj/gromacs/coul/gromacs	0.5557  4.3000 	# SC2 SN0
pair_coeff		21  23   lj/gromacs/coul/gromacs	0.5557  4.3000 	# SC2 TA2
pair_coeff		21  24   lj/gromacs/coul/gromacs	0.5557  4.3000 	# SC2 TA3
pair_coeff		21  25   lj/gromacs/coul/gromacs	0.5557  4.3000 	# SC2 TG2
pair_coeff		21  26   lj/gromacs/coul/gromacs	0.4840  4.3000 	# SC2 TG3
pair_coeff		21  27   lj/gromacs/coul/gromacs	0.5557  4.3000 	# SC2 TN0
pair_coeff		21  28   lj/gromacs/coul/gromacs	0.4840  4.3000 	# SC2 TNa
pair_coeff		21  29   lj/gromacs/coul/gromacs	0.4840  4.3000 	# SC2 TT2
pair_coeff		21  30   lj/gromacs/coul/gromacs	0.4840  4.3000 	# SC2 TT3
pair_coeff		21  31   lj/gromacs/coul/gromacs	0.4840  4.3000 	# SC2 TY2
pair_coeff		21  32   lj/gromacs/coul/gromacs	0.5557  4.3000 	# SC2 TY3
pair_coeff		22  22   lj/gromacs/coul/gromacs	0.6274  4.3000 	# SN0 SN0
pair_coeff		22  23   lj/gromacs/coul/gromacs	0.6274  4.3000 	# SN0 TA2
pair_coeff		22  24   lj/gromacs/coul/gromacs	0.7170  4.3000 	# SN0 TA3
pair_coeff		22  25   lj/gromacs/coul/gromacs	0.7170  4.3000 	# SN0 TG2
pair_coeff		22  26   lj/gromacs/coul/gromacs	0.7170  4.3000 	# SN0 TG3
pair_coeff		22  27   lj/gromacs/coul/gromacs	0.6274  4.3000 	# SN0 TN0
pair_coeff		22  28   lj/gromacs/coul/gromacs	0.6274  4.3000 	# SN0 TNa
pair_coeff		22  29   lj/gromacs/coul/gromacs	0.7170  4.3000 	# SN0 TT2
pair_coeff		22  30   lj/gromacs/coul/gromacs	0.6274  4.3000 	# SN0 TT3
pair_coeff		22  31   lj/gromacs/coul/gromacs	0.7170  4.3000 	# SN0 TY2
pair_coeff		22  32   lj/gromacs/coul/gromacs	0.7170  4.3000 	# SN0 TY3
pair_coeff		23  23   lj/gromacs/coul/gromacs	0.5497  3.2000 	# TA2 TA2
pair_coeff		23  24   lj/gromacs/coul/gromacs	0.6453  3.2000 	# TA2 TA3
pair_coeff		23  25   lj/gromacs/coul/gromacs	0.9560  3.2000 	# TA2 TG2
pair_coeff		23  26   lj/gromacs/coul/gromacs	0.9560  3.2000 	# TA2 TG3
pair_coeff		23  27   lj/gromacs/coul/gromacs	0.6274  3.2000 	# TA2 TN0
pair_coeff		23  28   lj/gromacs/coul/gromacs	0.6274  3.2000 	# TA2 TNa
pair_coeff		23  29   lj/gromacs/coul/gromacs	1.1950  3.2000 	# TA2 TT2
pair_coeff		23  30   lj/gromacs/coul/gromacs	0.9560  3.2000 	# TA2 TT3
pair_coeff		23  31   lj/gromacs/coul/gromacs	0.6453  3.2000 	# TA2 TY2
pair_coeff		23  32   lj/gromacs/coul/gromacs	0.8365  3.2000 	# TA2 TY3
pair_coeff		24  24   lj/gromacs/coul/gromacs	0.6453  3.2000 	# TA3 TA3
pair_coeff		24  25   lj/gromacs/coul/gromacs	0.9560  3.2000 	# TA3 TG2
pair_coeff		24  26   lj/gromacs/coul/gromacs	0.9560  3.2000 	# TA3 TG3
pair_coeff		24  27   lj/gromacs/coul/gromacs	0.7170  3.2000 	# TA3 TN0
pair_coeff		24  28   lj/gromacs/coul/gromacs	0.8066  3.2000 	# TA3 TNa
pair_coeff		24  29   lj/gromacs/coul/gromacs	1.0755  3.2000 	# TA3 TT2
pair_coeff		24  30   lj/gromacs/coul/gromacs	1.1950  3.2000 	# TA3 TT3
pair_coeff		24  31   lj/gromacs/coul/gromacs	0.8365  3.2000 	# TA3 TY2
pair_coeff		24  32   lj/gromacs/coul/gromacs	0.6453  3.2000 	# TA3 TY3
pair_coeff		25  25   lj/gromacs/coul/gromacs	0.4780  3.2000 	# TG2 TG2
pair_coeff		25  26   lj/gromacs/coul/gromacs	0.4780  3.2000 	# TG2 TG3
pair_coeff		25  27   lj/gromacs/coul/gromacs	0.7170  3.2000 	# TG2 TN0
pair_coeff		25  28   lj/gromacs/coul/gromacs	0.8066  3.2000 	# TG2 TNa
pair_coeff		25  29   lj/gromacs/coul/gromacs	0.8365  3.2000 	# TG2 TT2
pair_coeff		25  30   lj/gromacs/coul/gromacs	0.7409  3.2000 	# TG2 TT3
pair_coeff		25  31   lj/gromacs/coul/gromacs	1.5535  3.2000 	# TG2 TY2
pair_coeff		25  32   lj/gromacs/coul/gromacs	1.4818  3.2000 	# TG2 TY3
pair_coeff		26  26   lj/gromacs/coul/gromacs	0.4780  3.2000 	# TG3 TG3
pair_coeff		26  27   lj/gromacs/coul/gromacs	0.7170  3.2000 	# TG3 TN0
pair_coeff		26  28   lj/gromacs/coul/gromacs	0.8066  3.2000 	# TG3 TNa
pair_coeff		26  29   lj/gromacs/coul/gromacs	0.7409  3.2000 	# TG3 TT2
pair_coeff		26  30   lj/gromacs/coul/gromacs	0.8365  3.2000 	# TG3 TT3
pair_coeff		26  31   lj/gromacs/coul/gromacs	1.4818  3.2000 	# TG3 TY2
pair_coeff		26  32   lj/gromacs/coul/gromacs	1.5535  3.2000 	# TG3 TY3
pair_coeff		27  27   lj/gromacs/coul/gromacs	0.6274  3.2000 	# TN0 TN0
pair_coeff		27  28   lj/gromacs/coul/gromacs	0.6274  3.2000 	# TN0 TNa
pair_coeff		27  29   lj/gromacs/coul/gromacs	0.7170  3.2000 	# TN0 TT2
pair_coeff		27  30   lj/gromacs/coul/gromacs	0.6274  3.2000 	# TN0 TT3
pair_coeff		27  31   lj/gromacs/coul/gromacs	0.7170  3.2000 	# TN0 TY2
pair_coeff		27  32   lj/gromacs/coul/gromacs	0.7170  3.2000 	# TN0 TY3
pair_coeff		28  28   lj/gromacs/coul/gromacs	0.7170  3.2000 	# TNa TNa
pair_coeff		28  29   lj/gromacs/coul/gromacs	0.8066  3.2000 	# TNa TT2
pair_coeff		28  30   lj/gromacs/coul/gromacs	0.7170  3.2000 	# TNa TT3
pair_coeff		28  31   lj/gromacs/coul/gromacs	0.8066  3.2000 	# TNa TY2
pair_coeff		28  32   lj/gromacs/coul/gromacs	0.8066  3.2000 	# TNa TY3
pair_coeff		29  29   lj/gromacs/coul/gromacs	1.0755  3.2000 	# TT2 TT2
pair_coeff		29  30   lj/gromacs/coul/gromacs	0.9560  3.2000 	# TT2 TT3
pair_coeff		29  31   lj/gromacs/coul/gromacs	1.1950  3.2000 	# TT2 TY2
pair_coeff		29  32   lj/gromacs/coul/gromacs	0.9560  3.2000 	# TT2 TY3
pair_coeff		30  30   lj/gromacs/coul/gromacs	0.9560  3.2000 	# TT3 TT3
pair_coeff		30  31   lj/gromacs/coul/gromacs	0.9560  3.2000 	# TT3 TY2
pair_coeff		30  32   lj/gromacs/coul/gromacs	1.1950  3.2000 	# TT3 TY3
pair_coeff		31  31   lj/gromacs/coul/gromacs	0.8365  3.2000 	# TY2 TY2
pair_coeff		31  32   lj/gromacs/coul/gromacs	0.6453  3.2000 	# TY2 TY3
pair_coeff		32  32   lj/gromacs/coul/gromacs	0.8365  3.2000 	# TY3 TY3
    include system_opt.in
#!!!!!fix 1 all box/relax iso 0. # if PBC is true, you should use this command.

# The following is only for testing which optimzation method works for your current potential function.
# You should do the test when you conduct this script first time. Then check the log file to keep the workable methods.
############################################# Test begions

#fix 123 ${material_2} spring/self 10.0
#fix_modify 123 energy yes
reset_timestep 0
thermo 500
thermo_style custom step temp etotal v_m1m2E c_m1m2E

#min_style sd
#minimize 0.0 ${forcecon} ${opt_step} ${opt_step}

#min_style hftn
#minimize 0.0 ${forcecon} ${opt_step} ${opt_step}

#timestep ${timesize}
min_style cg
##minimize 0.0 1e-6 ${opt_step1} ${opt_step2} #1w~10w
minimize 0.0 0.0 ${opt_step1} ${opt_step2} #1w~10w
minimize 0.0 0.0 20000 ${opt_step2} 
minimize 0.0 0.0 20000 20000 
WARNING: Using 'neigh_modify every 1 delay 0 check yes' setting during minimization (../min.cpp:187)
Hybrid pair style last /omp style lj/gromacs/coul/gromacs
Last active /omp style is improper_style harmonic/omp
WARNING: Bond/angle/dihedral extent > half of periodic box length (../domain.cpp:935)
Per MPI rank memory allocation (min/avg/max) = 45.55 | 45.55 | 45.55 Mbytes
Step Temp TotEng v_m1m2E c_m1m2E 
       0 2.9328445e-09   -27268.971   -124.34932   -124.34932 
     500 2.9328445e-09   -27269.096    -124.3306    -124.3306 
    1000 2.9328445e-09   -27269.553   -124.35855   -124.35855 
    1500 2.9328445e-09    -27269.57   -124.36567   -124.36567 
    2000 2.9328445e-09    -27269.57   -124.36519   -124.36519 
    2500 2.9328445e-09    -27269.57   -124.36548   -124.36548 
    3000 2.9328445e-09    -27269.57   -124.36551   -124.36551 
    3500 2.9328445e-09    -27269.57   -124.36551   -124.36551 
    4000 2.9328445e-09    -27269.57   -124.36551   -124.36551 
    4500 2.9328445e-09    -27269.57   -124.36551   -124.36551 
    5000 2.9328445e-09    -27269.57   -124.36551   -124.36551 
    5500 2.9328445e-09    -27269.57   -124.36551   -124.36551 
    6000 2.9328445e-09    -27269.57   -124.36551   -124.36551 
    6500 2.9328445e-09    -27269.57   -124.36551   -124.36551 
    7000 2.9328445e-09    -27269.57   -124.36551   -124.36551 
    7500 2.9328445e-09    -27269.57   -124.36551   -124.36551 
    8000 2.9328445e-09    -27269.57   -124.36551   -124.36551 
    8500 2.9328445e-09    -27269.57   -124.36551   -124.36551 
    9000 2.9328445e-09    -27269.57   -124.36551   -124.36551 
    9500 2.9328445e-09    -27269.57   -124.36551   -124.36551 
   10000 2.9328445e-09    -27269.57   -124.36551   -124.36551 
   10001 2.9328445e-09    -27269.57   -124.36551   -124.36551 
WARNING: Bond/angle/dihedral extent > half of periodic box length (../domain.cpp:935)
Loop time of 69.2905 on 12 procs for 10001 steps with 7236 atoms

1197.7% CPU use with 1 MPI tasks x 12 OpenMP threads

Minimization stats:
  Stopping criterion = max force evaluations
  Energy initial, next-to-last, final = 
     -27268.9712937824  -27269.5699348823  -27269.5699348823
  Force two-norm initial, final = 7.8979696 1.0793396e-10
  Force max component initial, final = 0.64733061 1.4205379e-11
  Final line search alpha, max atom move = 1.0000000 1.4205379e-11
  Iterations, force evaluations = 10001 20001

MPI task timing breakdown:
Section |  min time  |  avg time  |  max time  |%varavg| %total
---------------------------------------------------------------
Pair    | 62.829     | 62.829     | 62.829     |   0.0 | 90.67
Bond    | 1.9722     | 1.9722     | 1.9722     |   0.0 |  2.85
Neigh   | 0.0037895  | 0.0037895  | 0.0037895  |   0.0 |  0.01
Comm    | 1.2329     | 1.2329     | 1.2329     |   0.0 |  1.78
Output  | 0.0046805  | 0.0046805  | 0.0046805  |   0.0 |  0.01
Modify  | 0.77901    | 0.77901    | 0.77901    |   0.0 |  1.12
Other   |            | 2.469      |            |       |  3.56

Nlocal:        7236.00 ave        7236 max        7236 min
Histogram: 1 0 0 0 0 0 0 0 0 0
Nghost:        12920.0 ave       12920 max       12920 min
Histogram: 1 0 0 0 0 0 0 0 0 0
Neighs:    1.07158e+06 ave 1.07158e+06 max 1.07158e+06 min
Histogram: 1 0 0 0 0 0 0 0 0 0

Total # of neighbors = 1071577
Ave neighs/atom = 148.08969
Ave special neighs/atom = 2.0359315
Neighbor list builds = 1
Dangerous builds = 0

reset_timestep 0
timestep ${fire_timesize}
timestep 50
velocity all zero linear
min_style fire/old
minimize 0.0 0.0 ${fire_step} ${fire_step}
minimize 0.0 0.0 1000 ${fire_step}
minimize 0.0 0.0 1000 1000
WARNING: Using 'neigh_modify every 1 delay 0 check yes' setting during minimization (../min.cpp:187)
Hybrid pair style last /omp style lj/gromacs/coul/gromacs
Last active /omp style is improper_style harmonic/omp
WARNING: Bond/angle/dihedral extent > half of periodic box length (../domain.cpp:935)
Per MPI rank memory allocation (min/avg/max) = 43.30 | 43.30 | 43.30 Mbytes
Step Temp TotEng v_m1m2E c_m1m2E 
       0            0    -27269.57   -124.36551   -124.36551 
     500 8.0027333e-25    -27269.57   -124.36551   -124.36551 
    1000 1.225199e-24    -27269.57   -124.36551   -124.36551 
WARNING: Bond/angle/dihedral extent > half of periodic box length (../domain.cpp:935)
Loop time of 3.47424 on 12 procs for 1000 steps with 7236 atoms

1197.6% CPU use with 1 MPI tasks x 12 OpenMP threads

Minimization stats:
  Stopping criterion = max iterations
  Energy initial, next-to-last, final = 
     -27269.5699348823  -27269.5699348823  -27269.5699348823
  Force two-norm initial, final = 1.0798992e-10 3.1203740e-10
  Force max component initial, final = 1.4205379e-11 6.0924528e-11
  Final line search alpha, max atom move = 0.0000000 0.0000000
  Iterations, force evaluations = 1000 1000

MPI task timing breakdown:
Section |  min time  |  avg time  |  max time  |%varavg| %total
---------------------------------------------------------------
Pair    | 3.1401     | 3.1401     | 3.1401     |   0.0 | 90.38
Bond    | 0.098667   | 0.098667   | 0.098667   |   0.0 |  2.84
Neigh   | 0          | 0          | 0          |   0.0 |  0.00
Comm    | 0.060043   | 0.060043   | 0.060043   |   0.0 |  1.73
Output  | 0.00044688 | 0.00044688 | 0.00044688 |   0.0 |  0.01
Modify  | 0.038886   | 0.038886   | 0.038886   |   0.0 |  1.12
Other   |            | 0.1361     |            |       |  3.92

Nlocal:        7236.00 ave        7236 max        7236 min
Histogram: 1 0 0 0 0 0 0 0 0 0
Nghost:        12935.0 ave       12935 max       12935 min
Histogram: 1 0 0 0 0 0 0 0 0 0
Neighs:    1.07184e+06 ave 1.07184e+06 max 1.07184e+06 min
Histogram: 1 0 0 0 0 0 0 0 0 0

Total # of neighbors = 1071837
Ave neighs/atom = 148.12562
Ave special neighs/atom = 2.0359315
Neighbor list builds = 0
Dangerous builds = 0
