LAMMPS data file via write_data, version 31 Aug 2021, timestep = 0

321 atoms
32 atom types
466 bonds
138 bond types
355 angles
66 angle types
10 dihedrals
10 dihedral types
51 impropers
17 improper types

-100 100 xlo xhi
-50 125 ylo yhi
0 200 zlo zhi

Masses

1 72
2 72
3 72
4 72
5 72
6 72
7 72
8 72
9 72
10 72
11 45
12 45
13 45
14 45
15 24
16 24
17 24
18 72
19 72
20 72
21 45
22 45
23 45
24 45
25 45
26 45
27 45
28 45
29 45
30 45
31 45
32 45

Atoms # full

1 2 10 1 18.22 -0.7850000000000001 77.58 0 0 0
2 1 1 0 18.259999999999998 2.455000000000002 78.78 0 0 0
3 2 8 0 16.09 -2.5150000000000006 79.8 0 0 0
4 1 1 0 18.62 -5.004999999999999 79.49000000000001 0 0 0
5 2 8 0 12.99 -4.465 79.98 0 0 0
6 1 12 0 12.07 -1.754999999999999 78.26 0 0 0
7 1 12 0 13.790000000000001 -0.9849999999999994 76.94 0 0 0
8 1 12 0 12.67 0.7050000000000018 77.3 0 0 0
9 2 8 0 9.670000000000002 -4.835000000000001 81.36 0 0 0
10 1 8 0 9.02 -6.044999999999998 83.98 0 0 0
11 2 8 0 7.53 -6.765000000000001 79.5 0 0 0
12 1 3 0 9.920000000000002 -6.364999999999998 77.06 0 0 0
13 1 10 1 11.61 -7.564999999999998 74.92 0 0 0
14 2 8 0 4.540000000000003 -5.945 77.49000000000001 0 0 0
15 1 6 0 3.19000000000001 -5.375 79.75 0 0 0
16 2 8 0 2.6100000000000003 -7.024999999999999 74.87 0 0 0
17 1 3 0 2.8100000000000005 -9.924999999999999 73.75 0 0 0
18 1 10 1 3.6600000000000006 -11.665 71.55 0 0 0
19 2 8 0 -0.3899999999999997 -6.254999999999999 76.21000000000001 0 0 0
20 1 6 0 -1.3499999999999996 -7.574999999999999 74.59 0 0 0
21 2 8 0 -3.2299999999999995 -4.035 76.45 0 0 0
22 1 2 0 -1.8299999999999992 -2.6750000000000007 78.29 0 0 0
23 2 8 0 -6.52 -3.474999999999998 77.89 0 0 0
24 1 9 -1 -7.82 -7.335000000000001 76.64 0 0 0
25 2 8 0 -9.68 -1.745000000000001 77.04 0 0 0
26 1 12 0 -8.9 0.8550000000000004 76.75 0 0 0
27 1 12 0 -7.82 0.625 74.72 0 0 0
28 1 12 0 -9.23 2.115000000000002 74.36 0 0 0
29 2 8 0 -12.399999999999999 0.16499999999999915 77.88000000000001 0 0 0
30 1 6 0 -13.849999999999998 -1.7049999999999983 79.07000000000001 0 0 0
31 2 8 0 -14.91 2.6950000000000003 78.3 0 0 0
32 1 12 0 -15.259999999999998 3.8049999999999997 75.77000000000001 0 0 0
33 1 12 0 -16.25 5.875 75.49000000000001 0 0 0
34 1 12 0 -14.48 6.045000000000002 74.41000000000001 0 0 0
35 2 8 0 -14.29 2.785 81.51 0 0 0
36 2 8 0 -11.599999999999998 3.9750000000000014 80.8 0 0 0
37 1 8 0 -9.87 1.1850000000000023 80.91000000000001 0 0 0
38 2 8 0 -10.58 7.164999999999999 81.34 0 0 0
39 1 9 -1 -13.309999999999999 7.785 83.23 0 0 0
40 2 8 0 -7.6 6.115000000000002 81.72 0 0 0
41 1 6 0 -6.449999999999999 8.285 82.86 0 0 0
42 2 8 0 -4.799999999999999 5.195 79.75 0 0 0
43 1 2 0 -6.119999999999999 3.865000000000002 77.82000000000001 0 0 0
44 2 8 0 -2.1799999999999997 2.6850000000000023 80.21000000000001 0 0 0
45 1 2 0 -1.4699999999999998 3.6750000000000007 82.60000000000001 0 0 0
46 2 8 0 1.1800000000000006 2.455000000000002 78.99000000000001 0 0 0
47 1 1 0 0.35000000000000053 2.585000000000001 76.01 0 0 0
48 2 7 0 3.6500000000000026 0.40500000000000114 79.61 0 0 0
49 1 3 0 2.1900000000000004 -1.0449999999999982 80.31 0 0 0
50 2 8 0 7.11 1.365000000000002 80.94 0 0 0
51 1 4 0 8.38 2.004999999999999 78.38000000000001 0 0 0
52 2 8 0 10.09 -0.6449999999999996 81.95 0 0 0
53 1 12 0 8.05 -0.41499999999999915 84.37 0 0 0
54 1 12 0 5.79999999999999 -0.504999999999999 83.89 0 0 0
55 1 12 0 5.880000000000001 0.6649999999999991 85.59 0 0 0
56 2 8 0 13.18 0.02500000000000213 83.18 0 0 0
57 1 2 0 14.360000000000001 1.4050000000000011 81.28 0 0 0
58 2 8 0 15.75 -2.0749999999999993 84.77000000000001 0 0 0
59 1 6 0 14.89 -4.195 83.81 0 0 0
60 2 8 0 18.71 -0.09499999999999886 84.13000000000001 0 0 0
61 1 8 0 19.47 -1.5549999999999997 82.12 0 0 0
62 2 8 0 18.57 2.5150000000000006 85.47 0 0 0
63 1 4 0 16.07 4.914999999999999 83.38000000000001 0 0 0
64 2 8 0 21.06 5.405000000000001 86.4 0 0 0
65 1 9 -1 23.82 2.414999999999999 85.9 0 0 0
66 2 7 0 19.700000000000003 8.245000000000001 86.32000000000001 0 0 0
67 2 8 0 20.11 11.395 88.61 0 0 0
68 1 7 0 21.32 9.224999999999998 90.91000000000001 0 0 0
69 2 8 0 18.97 13.004999999999999 86.03 0 0 0
70 1 8 0 19.8 16.065 86.37 0 0 0
71 2 8 0 16.62 14.105 83.59 0 0 0
72 1 6 0 14.540000000000001 14.504999999999999 84.97 0 0 0
73 2 8 0 18.66 15.465 81.49000000000001 0 0 0
74 1 6 0 19.5 17.285 82.98 0 0 0
75 2 8 0 19.57 12.385000000000002 80.55 0 0 0
76 1 9 -1 22.29 11.735000000000003 83.48 0 0 0
77 2 8 0 16.65 12.025000000000002 79.35000000000001 0 0 0
78 1 2 0 15.870000000000001 9.985000000000003 81.08 0 0 0
79 2 8 0 14.67 10.215 76.82000000000001 0 0 0
80 1 11 0 15.35 12.535 74.64 0 0 0
81 1 11 0 13.72 12.334999999999997 73.01 0 0 0
82 1 14 0 13.85 14.575 72.38000000000001 0 0 0
83 2 8 0 11.29 10.254999999999999 75.29 0 0 0
84 1 2 0 10.440000000000001 9.044999999999998 77.52000000000001 0 0 0
85 2 8 0 9.54 7.895 73.04 0 0 0
86 1 3 0 11.25 9.434999999999999 70.61 0 0 0
87 1 10 1 13.370000000000001 10.364999999999998 68.53 0 0 0
88 2 8 0 6.36 7.785 71.44 0 0 0
89 1 11 0 5.219999999999995 6.585000000000001 74.23 0 0 0
90 1 13 0 5.640000000000001 6.525000000000002 76.29 0 0 0
91 1 12 0 4.460000000000004 3.7950000000000017 74.65 0 0 0
92 1 12 0 4.870000000000001 3.705000000000002 76.74000000000001 0 0 0
93 2 8 0 5.09 5.395 69.03 0 0 0
94 1 3 0 8.21999999999999 5.815000000000001 67.88000000000001 0 0 0
95 1 10 1 11.27000000000001 5.925000000000001 67.02000000000001 0 0 0
96 2 8 0 2.7 5.715 66.09 0 0 0
97 1 12 0 0.35000000000000053 4.805 67.5 0 0 0
98 1 12 0 -1.4899999999999993 5.455000000000002 66.3 0 0 0
99 1 12 0 -1.96 3.525000000000002 66.89 0 0 0
100 2 8 0 2.4900000000000104 4.965 62.94 0 0 0
101 1 3 0 -0.4299999999999997 3.745000000000001 62.95 0 0 0
102 1 10 1 -3.3099999999999996 2.4450000000000003 63.05 0 0 0
103 2 8 0 5.23 6.815000000000001 62.33 0 0 0
104 2 8 0 5.079999999999995 8.535 65.18 0 0 0
105 1 5 0 2.7 9.845000000000002 63.68000000000001 0 0 0
106 1 10 1 0.07000000000000028 11.645 64.4 0 0 0
107 2 8 0 5.440000000000001 11.055000000000003 67.49000000000001 0 0 0
108 1 9 -1 8.72 10.695000000000004 67.24000000000001 0 0 0
109 2 8 0 3.0600000000000005 11.205000000000002 70.3 0 0 0
110 1 1 0 1.8500000000000005 9.135000000000002 69.87 0 0 0
111 2 8 0 5.5600000000000005 11.445000000000004 72.39 0 0 0
112 1 11 0 4.280000000000005 12.245000000000001 75.09 0 0 0
113 1 11 0 6.11 11.904999999999998 76.49000000000001 0 0 0
114 1 14 0 5.590000000000001 13.715 77.9 0 0 0
115 2 8 0 7.800000000000001 13.745000000000001 74.15 0 0 0
116 1 6 0 8.90999999999999 14.075 71.93 0 0 0
117 2 8 0 10.920000000000002 13.825 76.28 0 0 0
118 1 12 0 9.940000000000001 14.434999999999999 78.9 0 0 0
119 1 12 0 11.74 14.165000000000003 80.34 0 0 0
120 1 12 0 10.870000000000001 15.945000000000004 80.96000000000001 0 0 0
121 2 8 0 13.030000000000001 16.455000000000002 77.11 0 0 0
122 1 9 -1 15.02 17.595000000000002 75.03 0 0 0
123 2 8 0 15.280000000000001 16.755 79.68 0 0 0
124 2 7 0 17.41 19.115 78.83 0 0 0
125 2 8 0 14.42 21.145 78.52000000000001 0 0 0
126 1 1 0 15.49 21.875000000000004 75.51 0 0 0
127 2 8 0 11.690000000000001 20.165000000000003 79.81 0 0 0
128 1 8 0 11.5 19.865 82.71000000000001 0 0 0
129 2 8 0 10.02000000000001 18.935 77.14 0 0 0
130 1 3 0 10 21.105 74.96000000000001 0 0 0
131 1 10 1 9.100000000000001 22.765000000000004 72.38000000000001 0 0 0
132 2 8 0 6.8100000000000005 18.495 76 0 0 0
133 1 6 0 6.16 16.794999999999998 78.11 0 0 0
134 2 8 0 5.319999999999997 16.605 73.10000000000001 0 0 0
135 1 6 0 6.82 18.435 71.75 0 0 0
136 2 8 0 2.2000000000000006 16.885 71.25 0 0 0
137 1 2 0 1.2100000000000004 15.565000000000001 73.27000000000001 0 0 0
138 2 7 0 -0.22999999999999954 16.185 69.32000000000001 0 0 0
139 1 3 0 0.8200000000000003 14.555000000000003 68.31 0 0 0
140 2 8 0 -3.5600000000000094 17.245 68.89 0 0 0
141 1 6 0 -3.3099999999999996 19.235000000000003 67.35000000000001 0 0 0
142 2 8 0 -4.57 13.965 68.9 0 0 0
143 1 9 -1 -3.6199999999999903 13.175 66.42 0 0 0
144 2 8 0 -2.6599999999999993 13.805000000000003 71.78 0 0 0
145 1 12 0 -1.75999999999999 11.035 70.88000000000001 0 0 0
146 1 12 0 -1.7800000000000091 10.254999999999999 68.71000000000001 0 0 0
147 1 12 0 -2.01 8.535 69.86 0 0 0
148 2 8 0 -3.42 16.025000000000002 74.14 0 0 0
149 1 6 0 -5.289999999999999 17.125000000000004 73.22 0 0 0
150 2 8 0 -3.4499999999999993 13.915000000000003 76.81 0 0 0
151 1 6 0 -5.41 12.845000000000002 76.52000000000001 0 0 0
152 2 7 0 -0.5599999999999898 12.845000000000002 76.33 0 0 0
153 2 8 0 1.4900000000000002 11.465 79.21000000000001 0 0 0
154 1 3 0 0.14000000000000057 13.375000000000004 81.05 0 0 0
155 1 10 1 -1.9499999999999993 13.775000000000002 83.41000000000001 0 0 0
156 2 8 0 3.9300000000000033 11.684999999999999 81.75 0 0 0
157 1 1 0 6.27000000000001 10.445000000000004 80.44 0 0 0
158 2 8 0 5.5600000000000005 10.815000000000001 84.88000000000001 0 0 0
159 1 9 -1 2.5000000000000004 11.645 86.57000000000001 0 0 0
160 2 8 0 8.47 12.375000000000004 85.71000000000001 0 0 0
161 1 2 0 8.870000000000001 14.385000000000002 84.18 0 0 0
162 2 8 0 8.75 11.395 88.8 0 0 0
163 1 6 0 6.69 12.285 89.60000000000001 0 0 0
164 2 8 0 9.22 8.205000000000002 87.58 0 0 0
165 1 7 0 6.53 7.625 89.63000000000001 0 0 0
166 2 8 0 11.66 8.145 85.51 0 0 0
167 1 1 0 11.61 9.735000000000003 82.93 0 0 0
168 2 8 0 14.200000000000001 7.324999999999999 87.48 0 0 0
169 1 1 0 15.47 10.315000000000001 87.60000000000001 0 0 0
170 2 8 0 12.81 4.395 87.93 0 0 0
171 1 3 0 10.91 5.275000000000002 90.41000000000001 0 0 0
172 1 10 1 8.969999999999992 6.525000000000002 92.63000000000001 0 0 0
173 2 8 0 11.88000000000001 3.6950000000000003 84.71000000000001 0 0 0
174 2 8 0 9.14 5.105 84.32000000000001 0 0 0
175 1 9 -1 6.439999999999991 4.254999999999999 85.46000000000001 0 0 0
176 2 7 0 7.710000000000001 5.565000000000001 80.8 0 0 0
177 2 8 0 4.5199999999999925 5.645 81.10000000000001 0 0 0
178 1 6 0 4.050000000000001 3.3049999999999997 82.53 0 0 0
179 2 8 0 1.4800000000000004 6.085000000000001 79.37 0 0 0
180 1 1 0 1.8700000000000006 7.565000000000001 76.36 0 0 0
181 2 8 0 -1.0199999999999996 8.645 79.33 0 0 0
182 1 3 0 -1.0300000000000091 8.425 82.7 0 0 0
183 1 10 1 -0.28999999999999915 8.754999999999999 85.78 0 0 0
184 2 8 0 -4.629999999999999 8.654999999999998 78.45 0 0 0
185 1 4 0 -3.38 7.705000000000002 74.93 0 0 0
186 2 8 0 -7.5 9.254999999999999 77.14 0 0 0
187 1 9 -1 -8.719999999999999 11.834999999999997 76.69 0 0 0
188 2 8 0 -10.18 7.495000000000001 75.75 0 0 0
189 1 3 0 -12.54 7.155000000000001 77.66000000000001 0 0 0
190 1 10 1 -14.86 7.754999999999999 79.65 0 0 0
191 2 8 0 -10.5 9.205000000000002 73.06 0 0 0
192 1 6 0 -11.37 11.345000000000002 73.9 0 0 0
193 2 8 0 -7.43 8.825 72.22 0 0 0
194 1 9 -1 -6.51 11.955000000000002 73.04 0 0 0
195 2 7 0 -7.34 5.605 72.85000000000001 0 0 0
196 2 8 0 -9.74 4.574999999999999 70.61 0 0 0
197 1 2 0 -12 4.925000000000001 71.41000000000001 0 0 0
198 2 8 0 -8.5 6.195 67.94 0 0 0
199 1 6 0 -9.11 8.294999999999998 68.39 0 0 0
200 2 8 0 -5.459999999999999 4.615000000000002 68.91000000000001 0 0 0
201 1 11 0 -4.789999999999999 7.004999999999999 68.44 0 0 0
202 1 14 0 -4.9 8.805000000000003 66.83 0 0 0
203 1 14 0 -5.52 9.205000000000002 68.42 0 0 0
204 2 8 0 -5.059999999999999 1.7250000000000014 68.09 0 0 0
205 1 6 0 -7.32 0.6750000000000007 68.87 0 0 0
206 2 8 0 -2.1899999999999995 -0.384999999999998 68.78 0 0 0
207 2 8 0 1.2000000000000006 0.015000000000000568 68.29 0 0 0
208 1 8 0 1.7400000000000002 -3.3049999999999997 67.77000000000001 0 0 0
209 2 8 0 3.6200000000000014 0.865000000000002 70.75 0 0 0
210 1 11 0 1.5100000000000002 3.2950000000000017 71.60000000000001 0 0 0
211 1 11 0 -0.6699999999999999 2.705000000000002 71.13000000000001 0 0 0
212 1 14 0 -1.4099999999999993 4.905000000000001 71.01 0 0 0
213 2 8 0 6.67 2.8450000000000024 71.19 0 0 0
214 1 6 0 7.99 1.5350000000000001 69.25 0 0 0
215 2 8 0 9.2 2.585000000000001 73.66000000000001 0 0 0
216 1 4 0 8.57 3.285 76.41000000000001 0 0 0
217 2 8 0 11.75 5.085000000000001 74.01 0 0 0
218 1 9 -1 13.71 5.995000000000001 70.76 0 0 0
219 2 8 0 14.9 5.045000000000002 75.68 0 0 0
220 1 2 0 13.6 5.004999999999999 78.08 0 0 0
221 2 8 0 17.28 7.465 77 0 0 0
222 1 6 0 17.96 7.824999999999999 74.39 0 0 0
223 2 8 0 20.67 7.345000000000002 78.52000000000001 0 0 0
224 1 9 -1 20.43 6.405000000000001 82.24000000000001 0 0 0
225 2 8 0 22.56 9.235000000000003 77.18 0 0 0
226 1 1 0 24.490000000000002 10.184999999999999 80.13000000000001 0 0 0
227 2 8 0 23.82 6.585000000000001 75.21000000000001 0 0 0
228 1 6 0 26.16 7.425000000000001 74.57000000000001 0 0 0
229 2 8 0 21.77 4.754999999999999 76.10000000000001 0 0 0
230 1 5 0 23.17 2.664999999999999 78.39 0 0 0
231 1 10 1 22.32 2.2950000000000017 81.58 0 0 0
232 2 8 0 19.42 2.3450000000000024 74.52000000000001 0 0 0
233 1 9 -1 19.35 3.6750000000000007 70.93 0 0 0
234 2 8 0 15.76 1.6050000000000004 74.12 0 0 0
235 2 8 0 13.02 -0.6849999999999987 73.28 0 0 0
236 1 9 -1 12.620000000000001 0.245000000000001 69.54 0 0 0
237 2 8 0 9.32 -1.1149999999999984 73.21000000000001 0 0 0
238 1 6 0 9.3 -2.625 75.35000000000001 0 0 0
239 2 8 0 6.28 -3.1750000000000007 72.68 0 0 0
240 1 1 0 6.75 -2.9450000000000003 69.54 0 0 0
241 2 8 0 2.74 -2.1950000000000003 72.66000000000001 0 0 0
242 1 1 0 3.3400000000000007 -1.5649999999999977 75.38000000000001 0 0 0
243 2 8 0 -0.5899999999999892 -3.375 72.65 0 0 0
244 1 9 -1 -1.8299999999999992 -5.585000000000001 69.56 0 0 0
245 2 8 0 -3.4699999999999998 -1.5749999999999993 72.01 0 0 0
246 1 1 0 -3.9299999999999997 1.1750000000000007 73.7 0 0 0
247 2 8 0 -6.75 -2.634999999999998 73.24000000000001 0 0 0
248 1 3 0 -5.58 -5.605 72.36 0 0 0
249 1 10 1 -4.35 -8.444999999999999 71.77000000000001 0 0 0
250 2 8 0 -10.129999999999999 -2.9250000000000007 72.26 0 0 0
251 1 11 0 -11.739999999999998 -0.5350000000000001 72.42 0 0 0
252 1 11 0 -13.899999999999999 -1.0249999999999986 71.71000000000001 0 0 0
253 1 14 0 -14.93 0.15500000000000114 73.45 0 0 0
254 2 8 0 -12.440000000000001 -4.134999999999998 74.68 0 0 0
255 1 5 0 -11.73 -7.134999999999998 74.59 0 0 0
256 1 10 1 -12.84 -10.395 73.09 0 0 0
257 2 9 -1 -15.620000000000001 -5.064999999999998 75.47 0 0 0
258 1 2 0 -17.2 -4.375 73.49000000000001 0 0 0
259 4 22 0 -12.02 58.02499999999999 89.14 0 0 0
260 4 21 0 -10.139999999999999 57.935 89.3 0 0 0
261 3 27 0 -10.2 55.325 87.77000000000001 0 0 0
262 3 23 0 -9.95 53.155 88.54 0 0 0
263 3 24 0 -9.95 52.474999999999994 85.95 0 0 0
264 3 28 0 -10.25 55.394999999999996 86.15 0 0 0
265 4 20 -1 -8.6 58.965 91.21000000000001 0 0 0
266 4 22 0 -8.639999999999999 55.485 92.18 0 0 0
267 4 21 0 -6.76 55.325 92.27000000000001 0 0 0
268 3 27 0 -6.93 54.99499999999999 89.63000000000001 0 0 0
269 3 29 0 -6.6899999999999995 52.855000000000004 89.09 0 0 0
270 3 30 0 -6.869999999999999 55.265 86.94 0 0 0
271 4 20 -1 -5.219999999999999 55.144999999999996 94.44 0 0 0
272 4 22 0 -5.26 51.69499999999999 93.37 0 0 0
273 4 21 0 -3.38 51.52499999999999 93.36 0 0 0
274 3 27 0 -3.4399999999999995 51.815 90.35000000000001 0 0 0
275 3 23 0 -3.1899999999999995 50.215 88.7 0 0 0
276 3 24 0 -3.1899999999999995 52.295 87.01 0 0 0
277 3 28 0 -3.4899999999999993 53.315 89.74000000000001 0 0 0
278 4 20 -1 -1.8399999999999892 50.19499999999999 95.09 0 0 0
279 4 22 0 -1.88 47.875 92.33 0 0 0
280 4 21 0 0 47.724999999999994 92.23 0 0 0
281 3 27 0 -0.16999999999999993 49.99499999999999 90.82000000000001 0 0 0
282 3 31 0 0.07000000000000028 49.644999999999996 88.66000000000001 0 0 0
283 3 32 0 -0.05999999999999961 52.315 89.48 0 0 0
284 4 20 -1 1.5400000000000005 45.685 92.96000000000001 0 0 0
285 4 22 0 1.5000000000000004 45.215 89.38000000000001 0 0 0
286 4 21 0 3.3800000000000003 45.155 89.22 0 0 0
287 3 27 0 3.2100000000000004 47.815 89.26 0 0 0
288 3 31 0 3.45 48.685 87.25 0 0 0
289 3 32 0 3.3200000000000003 50.49499999999999 89.39 0 0 0
290 4 20 -1 4.919999999999998 43.035 88.73 0 0 0
291 4 22 0 4.879999999999999 44.575 85.47 0 0 0
292 4 21 0 6.76 44.614999999999995 85.29 0 0 0
293 3 27 0 6.70000000000001 47.55499999999999 86.02000000000001 0 0 0
294 3 23 0 6.950000000000001 49.41499999999999 84.67 0 0 0
295 3 24 0 6.950000000000001 50.795 86.96000000000001 0 0 0
296 3 28 0 6.649999999999991 47.94499999999999 87.59 0 0 0
297 4 20 -1 8.29999999999999 43.095 83.74000000000001 0 0 0
298 4 22 0 8.26 46.155 81.83 0 0 0
299 4 21 0 10.14 46.285 81.7 0 0 0
300 3 27 0 10.08000000000001 48.364999999999995 83.89 0 0 0
301 3 25 0 10.399999999999991 51.30499999999999 83.61 0 0 0
302 3 26 0 10.33 50.605000000000004 86.47 0 0 0
303 3 28 0 10.030000000000001 47.875 85.45 0 0 0
304 4 20 -1 11.68 45.845 79.57000000000001 0 0 0
305 4 22 0 11.64 49.455 79.62 0 0 0
306 4 21 0 13.52 49.625 79.58 0 0 0
307 3 27 0 13.35 49.19499999999999 82.21000000000001 0 0 0
308 3 31 0 13.59 51.065 83.36 0 0 0
309 3 32 0 13.46 48.69499999999999 84.84 0 0 0
310 4 20 -1 15.06 50.405 77.55 0 0 0
311 4 22 0 15.02 53.41499999999999 79.54 0 0 0
312 4 21 0 16.9 53.584999999999994 79.60000000000001 0 0 0
313 3 27 0 16.73 51.80499999999999 81.58 0 0 0
314 3 29 0 16.97 52.795 83.55 0 0 0
315 3 30 0 16.79 49.595 83.15 0 0 0
316 4 20 -1 18.44 55.334999999999994 78.32000000000001 0 0 0
317 4 22 0 18.4 56.795 81.63000000000001 0 0 0
318 4 21 0 20.28 56.905 81.77000000000001 0 0 0
319 3 27 0 20.11 54.334999999999994 82.47 0 0 0
320 3 29 0 20.35 54.105000000000004 84.66000000000001 0 0 0
321 3 30 0 20.17 51.63499999999999 82.59 0 0 0

Velocities

1 0 0 0
2 0 0 0
3 0 0 0
4 0 0 0
5 0 0 0
6 0 0 0
7 0 0 0
8 0 0 0
9 0 0 0
10 0 0 0
11 0 0 0
12 0 0 0
13 0 0 0
14 0 0 0
15 0 0 0
16 0 0 0
17 0 0 0
18 0 0 0
19 0 0 0
20 0 0 0
21 0 0 0
22 0 0 0
23 0 0 0
24 0 0 0
25 0 0 0
26 0 0 0
27 0 0 0
28 0 0 0
29 0 0 0
30 0 0 0
31 0 0 0
32 0 0 0
33 0 0 0
34 0 0 0
35 0 0 0
36 0 0 0
37 0 0 0
38 0 0 0
39 0 0 0
40 0 0 0
41 0 0 0
42 0 0 0
43 0 0 0
44 0 0 0
45 0 0 0
46 0 0 0
47 0 0 0
48 0 0 0
49 0 0 0
50 0 0 0
51 0 0 0
52 0 0 0
53 0 0 0
54 0 0 0
55 0 0 0
56 0 0 0
57 0 0 0
58 0 0 0
59 0 0 0
60 0 0 0
61 0 0 0
62 0 0 0
63 0 0 0
64 0 0 0
65 0 0 0
66 0 0 0
67 0 0 0
68 0 0 0
69 0 0 0
70 0 0 0
71 0 0 0
72 0 0 0
73 0 0 0
74 0 0 0
75 0 0 0
76 0 0 0
77 0 0 0
78 0 0 0
79 0 0 0
80 0 0 0
81 0 0 0
82 0 0 0
83 0 0 0
84 0 0 0
85 0 0 0
86 0 0 0
87 0 0 0
88 0 0 0
89 0 0 0
90 0 0 0
91 0 0 0
92 0 0 0
93 0 0 0
94 0 0 0
95 0 0 0
96 0 0 0
97 0 0 0
98 0 0 0
99 0 0 0
100 0 0 0
101 0 0 0
102 0 0 0
103 0 0 0
104 0 0 0
105 0 0 0
106 0 0 0
107 0 0 0
108 0 0 0
109 0 0 0
110 0 0 0
111 0 0 0
112 0 0 0
113 0 0 0
114 0 0 0
115 0 0 0
116 0 0 0
117 0 0 0
118 0 0 0
119 0 0 0
120 0 0 0
121 0 0 0
122 0 0 0
123 0 0 0
124 0 0 0
125 0 0 0
126 0 0 0
127 0 0 0
128 0 0 0
129 0 0 0
130 0 0 0
131 0 0 0
132 0 0 0
133 0 0 0
134 0 0 0
135 0 0 0
136 0 0 0
137 0 0 0
138 0 0 0
139 0 0 0
140 0 0 0
141 0 0 0
142 0 0 0
143 0 0 0
144 0 0 0
145 0 0 0
146 0 0 0
147 0 0 0
148 0 0 0
149 0 0 0
150 0 0 0
151 0 0 0
152 0 0 0
153 0 0 0
154 0 0 0
155 0 0 0
156 0 0 0
157 0 0 0
158 0 0 0
159 0 0 0
160 0 0 0
161 0 0 0
162 0 0 0
163 0 0 0
164 0 0 0
165 0 0 0
166 0 0 0
167 0 0 0
168 0 0 0
169 0 0 0
170 0 0 0
171 0 0 0
172 0 0 0
173 0 0 0
174 0 0 0
175 0 0 0
176 0 0 0
177 0 0 0
178 0 0 0
179 0 0 0
180 0 0 0
181 0 0 0
182 0 0 0
183 0 0 0
184 0 0 0
185 0 0 0
186 0 0 0
187 0 0 0
188 0 0 0
189 0 0 0
190 0 0 0
191 0 0 0
192 0 0 0
193 0 0 0
194 0 0 0
195 0 0 0
196 0 0 0
197 0 0 0
198 0 0 0
199 0 0 0
200 0 0 0
201 0 0 0
202 0 0 0
203 0 0 0
204 0 0 0
205 0 0 0
206 0 0 0
207 0 0 0
208 0 0 0
209 0 0 0
210 0 0 0
211 0 0 0
212 0 0 0
213 0 0 0
214 0 0 0
215 0 0 0
216 0 0 0
217 0 0 0
218 0 0 0
219 0 0 0
220 0 0 0
221 0 0 0
222 0 0 0
223 0 0 0
224 0 0 0
225 0 0 0
226 0 0 0
227 0 0 0
228 0 0 0
229 0 0 0
230 0 0 0
231 0 0 0
232 0 0 0
233 0 0 0
234 0 0 0
235 0 0 0
236 0 0 0
237 0 0 0
238 0 0 0
239 0 0 0
240 0 0 0
241 0 0 0
242 0 0 0
243 0 0 0
244 0 0 0
245 0 0 0
246 0 0 0
247 0 0 0
248 0 0 0
249 0 0 0
250 0 0 0
251 0 0 0
252 0 0 0
253 0 0 0
254 0 0 0
255 0 0 0
256 0 0 0
257 0 0 0
258 0 0 0
259 0 0 0
260 0 0 0
261 0 0 0
262 0 0 0
263 0 0 0
264 0 0 0
265 0 0 0
266 0 0 0
267 0 0 0
268 0 0 0
269 0 0 0
270 0 0 0
271 0 0 0
272 0 0 0
273 0 0 0
274 0 0 0
275 0 0 0
276 0 0 0
277 0 0 0
278 0 0 0
279 0 0 0
280 0 0 0
281 0 0 0
282 0 0 0
283 0 0 0
284 0 0 0
285 0 0 0
286 0 0 0
287 0 0 0
288 0 0 0
289 0 0 0
290 0 0 0
291 0 0 0
292 0 0 0
293 0 0 0
294 0 0 0
295 0 0 0
296 0 0 0
297 0 0 0
298 0 0 0
299 0 0 0
300 0 0 0
301 0 0 0
302 0 0 0
303 0 0 0
304 0 0 0
305 0 0 0
306 0 0 0
307 0 0 0
308 0 0 0
309 0 0 0
310 0 0 0
311 0 0 0
312 0 0 0
313 0 0 0
314 0 0 0
315 0 0 0
316 0 0 0
317 0 0 0
318 0 0 0
319 0 0 0
320 0 0 0
321 0 0 0

Bonds

1 18 1 3
2 2 1 2
3 13 3 5
4 1 3 4
5 13 5 9
6 22 5 6
7 23 6 7
8 24 6 8
9 25 7 8
10 13 9 11
11 14 9 10
12 13 11 14
13 4 11 12
14 5 12 13
15 13 14 16
16 26 14 15
17 13 16 19
18 4 16 17
19 5 17 18
20 13 19 21
21 10 19 20
22 13 21 23
23 27 21 22
24 13 23 25
25 16 23 24
26 13 25 29
27 22 25 26
28 28 26 27
29 29 26 28
30 30 27 28
31 13 29 31
32 31 29 30
33 13 31 35
34 22 31 32
35 32 32 33
36 33 32 34
37 34 33 34
38 13 35 36
39 13 36 38
40 14 36 37
41 13 38 40
42 17 38 39
43 13 40 42
44 35 40 41
45 13 42 44
46 36 42 43
47 13 44 46
48 37 44 45
49 11 46 48
50 38 46 47
51 11 48 50
52 3 48 49
53 13 50 52
54 7 50 51
55 13 52 56
56 22 52 53
57 39 53 54
58 40 53 55
59 41 54 55
60 13 56 58
61 42 56 57
62 13 58 60
63 43 58 59
64 13 60 62
65 14 60 61
66 13 62 64
67 6 62 63
68 11 64 66
69 16 64 65
70 11 66 67
71 13 67 69
72 12 67 68
73 13 69 71
74 14 69 70
75 13 71 73
76 44 71 72
77 13 73 75
78 45 73 74
79 13 75 77
80 16 75 76
81 13 77 79
82 46 77 78
83 13 79 83
84 20 79 80
85 47 80 81
86 48 80 82
87 49 81 82
88 13 83 85
89 50 83 84
90 13 85 88
91 4 85 86
92 5 86 87
93 13 88 93
94 19 88 89
95 51 89 90
96 52 89 91
97 53 90 91
98 54 90 92
99 55 91 92
100 13 93 96
101 4 93 94
102 5 94 95
103 13 96 100
104 22 96 97
105 56 97 98
106 57 97 99
107 58 98 99
108 13 100 103
109 4 100 101
110 5 101 102
111 13 103 104
112 13 104 107
113 8 104 105
114 9 105 106
115 13 107 109
116 17 107 108
117 13 109 111
118 59 109 110
119 13 111 115
120 20 111 112
121 60 112 113
122 61 112 114
123 62 113 114
124 13 115 117
125 63 115 116
126 13 117 121
127 22 117 118
128 64 118 119
129 65 118 120
130 66 119 120
131 13 121 123
132 17 121 122
133 11 123 124
134 11 124 125
135 13 125 127
136 1 125 126
137 13 127 129
138 14 127 128
139 13 129 132
140 4 129 130
141 5 130 131
142 13 132 134
143 10 132 133
144 13 134 136
145 67 134 135
146 11 136 138
147 68 136 137
148 11 138 140
149 3 138 139
150 13 140 142
151 69 140 141
152 13 142 144
153 17 142 143
154 13 144 148
155 22 144 145
156 70 145 146
157 71 145 147
158 72 146 147
159 13 148 150
160 10 148 149
161 11 150 152
162 10 150 151
163 11 152 153
164 13 153 156
165 4 153 154
166 5 154 155
167 13 156 158
168 73 156 157
169 13 158 160
170 16 158 159
171 13 160 162
172 74 160 161
173 13 162 164
174 10 162 163
175 13 164 166
176 12 164 165
177 13 166 168
178 1 166 167
179 13 168 170
180 1 168 169
181 13 170 173
182 4 170 171
183 5 171 172
184 13 173 174
185 11 174 176
186 17 174 175
187 11 176 177
188 13 177 179
189 10 177 178
190 13 179 181
191 1 179 180
192 13 181 184
193 4 181 182
194 5 182 183
195 13 184 186
196 6 184 185
197 13 186 188
198 17 186 187
199 13 188 191
200 4 188 189
201 5 189 190
202 13 191 193
203 10 191 192
204 11 193 195
205 17 193 194
206 11 195 196
207 13 196 198
208 75 196 197
209 13 198 200
210 10 198 199
211 13 200 204
212 21 200 201
213 76 201 202
214 77 201 203
215 78 202 203
216 13 204 206
217 79 204 205
218 13 206 207
219 13 207 209
220 14 207 208
221 13 209 213
222 20 209 210
223 80 210 211
224 81 210 212
225 82 211 212
226 13 213 215
227 83 213 214
228 13 215 217
229 7 215 216
230 13 217 219
231 16 217 218
232 13 219 221
233 84 219 220
234 13 221 223
235 85 221 222
236 13 223 225
237 16 223 224
238 13 225 227
239 1 225 226
240 13 227 229
241 86 227 228
242 13 229 232
243 8 229 230
244 9 230 231
245 13 232 234
246 16 232 233
247 13 234 235
248 13 235 237
249 16 235 236
250 13 237 239
251 87 237 238
252 13 239 241
253 88 239 240
254 13 241 243
255 89 241 242
256 13 243 245
257 16 243 244
258 13 245 247
259 1 245 246
260 13 247 250
261 4 247 248
262 5 248 249
263 13 250 254
264 20 250 251
265 90 251 252
266 91 251 253
267 92 252 253
268 15 254 257
269 8 254 255
270 9 255 256
271 93 257 258
272 99 259 260
273 138 259 265
274 138 259 261
275 138 259 262
276 138 259 263
277 138 259 264
278 97 260 265
279 101 260 261
280 138 260 266
281 138 260 262
282 138 260 263
283 138 260 264
284 104 261 262
285 138 261 263
286 102 262 264
287 105 262 263
288 106 263 264
289 107 264 261
290 98 265 266
291 138 265 267
292 138 265 268
293 138 265 269
294 138 265 270
295 99 266 267
296 138 266 271
297 138 266 268
298 138 266 269
299 138 266 270
300 97 267 271
301 100 267 268
302 138 267 272
303 138 267 269
304 138 267 270
305 108 268 269
306 109 269 270
307 110 270 268
308 98 271 272
309 138 271 273
310 138 271 274
311 138 271 275
312 138 271 276
313 138 271 277
314 99 272 273
315 138 272 278
316 138 272 274
317 138 272 275
318 138 272 276
319 138 272 277
320 97 273 278
321 101 273 274
322 138 273 279
323 138 273 275
324 138 273 276
325 138 273 277
326 111 274 275
327 138 274 276
328 102 275 277
329 112 275 276
330 113 276 277
331 114 277 274
332 98 278 279
333 138 278 280
334 138 278 281
335 138 278 282
336 138 278 283
337 99 279 280
338 138 279 284
339 138 279 281
340 138 279 282
341 138 279 283
342 97 280 284
343 100 280 281
344 138 280 285
345 138 280 282
346 138 280 283
347 115 281 282
348 116 282 283
349 117 283 281
350 98 284 285
351 138 284 286
352 138 284 287
353 138 284 288
354 138 284 289
355 99 285 286
356 138 285 290
357 138 285 287
358 138 285 288
359 138 285 289
360 97 286 290
361 100 286 287
362 138 286 291
363 138 286 288
364 138 286 289
365 118 287 288
366 119 288 289
367 120 289 287
368 98 290 291
369 138 290 292
370 138 290 293
371 138 290 294
372 138 290 295
373 138 290 296
374 99 291 292
375 138 291 297
376 138 291 293
377 138 291 294
378 138 291 295
379 138 291 296
380 97 292 297
381 101 292 293
382 138 292 298
383 138 292 294
384 138 292 295
385 138 292 296
386 121 293 294
387 138 293 295
388 102 294 296
389 122 294 295
390 123 295 296
391 124 296 293
392 98 297 298
393 138 297 299
394 138 297 300
395 138 297 301
396 138 297 302
397 138 297 303
398 99 298 299
399 138 298 304
400 138 298 300
401 138 298 301
402 138 298 302
403 138 298 303
404 97 299 304
405 101 299 300
406 138 299 305
407 138 299 301
408 138 299 302
409 138 299 303
410 125 300 301
411 138 300 302
412 103 301 303
413 126 301 302
414 127 302 303
415 128 303 300
416 98 304 305
417 138 304 306
418 138 304 307
419 138 304 308
420 138 304 309
421 99 305 306
422 138 305 310
423 138 305 307
424 138 305 308
425 138 305 309
426 97 306 310
427 100 306 307
428 138 306 311
429 138 306 308
430 138 306 309
431 129 307 308
432 130 308 309
433 131 309 307
434 98 310 311
435 138 310 312
436 138 310 313
437 138 310 314
438 138 310 315
439 99 311 312
440 138 311 316
441 138 311 313
442 138 311 314
443 138 311 315
444 97 312 316
445 100 312 313
446 138 312 317
447 138 312 314
448 138 312 315
449 132 313 314
450 133 314 315
451 134 315 313
452 98 316 317
453 138 316 318
454 138 316 319
455 138 316 320
456 138 316 321
457 99 317 318
458 138 317 319
459 138 317 320
460 138 317 321
461 100 318 319
462 138 318 320
463 138 318 321
464 135 319 320
465 136 320 321
466 137 321 319

Angles

1 4 2 1 3
2 26 1 3 5
3 3 1 3 4
4 22 3 5 9
5 28 3 5 6
6 33 5 6 7
7 33 5 6 8
8 22 5 9 11
9 23 5 9 10
10 22 9 11 14
11 10 9 11 12
12 19 11 12 13
13 22 11 14 16
14 15 11 14 15
15 22 14 16 19
16 10 14 16 17
17 19 16 17 18
18 22 16 19 21
19 15 16 19 20
20 22 19 21 23
21 6 19 21 22
22 22 21 23 25
23 25 21 23 24
24 22 23 25 29
25 28 23 25 26
26 33 25 26 27
27 33 25 26 28
28 22 25 29 31
29 15 25 29 30
30 22 29 31 35
31 28 29 31 32
32 33 31 32 33
33 33 31 32 34
34 22 31 35 36
35 22 35 36 38
36 23 35 36 37
37 22 36 38 40
38 25 36 38 39
39 22 38 40 42
40 15 38 40 41
41 22 40 42 44
42 6 40 42 43
43 22 42 44 46
44 6 42 44 45
45 17 44 46 48
46 2 44 46 47
47 21 46 48 50
48 8 46 48 49
49 17 48 50 52
50 11 48 50 51
51 22 50 52 56
52 28 50 52 53
53 33 52 53 54
54 33 52 53 55
55 22 52 56 58
56 6 52 56 57
57 22 56 58 60
58 15 56 58 59
59 22 58 60 62
60 23 58 60 61
61 22 60 62 64
62 12 60 62 63
63 17 62 64 66
64 25 62 64 65
65 21 64 66 67
66 17 66 67 69
67 16 66 67 68
68 22 67 69 71
69 23 67 69 70
70 22 69 71 73
71 15 69 71 72
72 22 71 73 75
73 15 71 73 74
74 22 73 75 77
75 25 73 75 76
76 22 75 77 79
77 6 75 77 78
78 22 77 79 83
79 27 77 79 80
80 29 79 80 81
81 32 79 80 82
82 22 79 83 85
83 6 79 83 84
84 22 83 85 88
85 10 83 85 86
86 19 85 86 87
87 22 85 88 93
88 27 85 88 89
89 31 88 89 90
90 30 88 89 91
91 22 88 93 96
92 10 88 93 94
93 19 93 94 95
94 22 93 96 100
95 28 93 96 97
96 33 96 97 98
97 33 96 97 99
98 22 96 100 103
99 10 96 100 101
100 19 100 101 102
101 22 100 103 104
102 22 103 104 107
103 13 103 104 105
104 20 104 105 106
105 22 104 107 109
106 25 104 107 108
107 22 107 109 111
108 2 107 109 110
109 22 109 111 115
110 27 109 111 112
111 29 111 112 113
112 32 111 112 114
113 22 111 115 117
114 15 111 115 116
115 22 115 117 121
116 28 115 117 118
117 33 117 118 119
118 33 117 118 120
119 22 117 121 123
120 25 117 121 122
121 17 121 123 124
122 21 123 124 125
123 17 124 125 127
124 1 124 125 126
125 22 125 127 129
126 23 125 127 128
127 22 127 129 132
128 10 127 129 130
129 19 129 130 131
130 22 129 132 134
131 15 129 132 133
132 22 132 134 136
133 15 132 134 135
134 17 134 136 138
135 6 134 136 137
136 21 136 138 140
137 8 136 138 139
138 17 138 140 142
139 14 138 140 141
140 22 140 142 144
141 25 140 142 143
142 22 142 144 148
143 28 142 144 145
144 33 144 145 146
145 33 144 145 147
146 22 144 148 150
147 15 144 148 149
148 17 148 150 152
149 15 148 150 151
150 21 150 152 153
151 17 152 153 156
152 9 152 153 154
153 19 153 154 155
154 22 153 156 158
155 2 153 156 157
156 22 156 158 160
157 25 156 158 159
158 22 158 160 162
159 6 158 160 161
160 22 160 162 164
161 15 160 162 163
162 22 162 164 166
163 18 162 164 165
164 22 164 166 168
165 2 164 166 167