LAMMPS data file via write_data, version 31 Aug 2021, timestep = 0

321 atoms
32 atom types
466 bonds
138 bond types
355 angles
66 angle types
10 dihedrals
10 dihedral types
51 impropers
17 improper types

-100 100 xlo xhi
-50 125 ylo yhi
0 200 zlo zhi

Masses

1 72
2 72
3 72
4 72
5 72
6 72
7 72
8 72
9 72
10 72
11 45
12 45
13 45
14 45
15 24
16 24
17 24
18 72
19 72
20 72
21 45
22 45
23 45
24 45
25 45
26 45
27 45
28 45
29 45
30 45
31 45
32 45

Atoms # full

1 2 10 1 12.744017681432815 -0.5662676999591245 78.5338520924088 0 0 0
2 1 1 0 14.00815911175972 2.624835270238045 78.93135464300417 0 0 0
3 2 8 0 14.280336987029594 -2.44271493220791 81.09839274832292 0 0 0
4 1 1 0 14.566758120963103 -4.8430975563384004 78.48052602295117 0 0 0
5 2 8 0 13.588818456469715 -4.488919167497394 84.06145709952688 0 0 0
6 1 12 0 11.769356946499249 -1.7429911324109697 84.60766131029648 0 0 0
7 1 12 0 10.966380881723463 -0.8722135320660389 82.63518170073527 0 0 0
8 1 12 0 11.07191864985823 0.7688336628998437 83.87450646987035 0 0 0
9 2 8 0 14.044672814320604 -5.00974166111862 87.60894081824448 0 0 0
10 1 8 0 16.36793274690629 -6.338505372511327 88.86904013374618 0 0 0
11 2 8 0 11.635215924171366 -6.928978491715323 89.11730002035567 0 0 0
12 1 3 0 9.91504431061894 -6.364802050248963 86.193532833519 0 0 0
13 1 10 1 8.25475071380113 -7.4309781294230355 83.96140520711347 0 0 0
14 2 8 0 8.94079008856674 -6.120784887910518 91.51302381812437 0 0 0
15 1 6 0 10.78685486930697 -5.6784483024180075 93.42388309354087 0 0 0
16 2 8 0 5.877738288200282 -7.155526336669525 92.65439308461612 0 0 0
17 1 3 0 4.763366538454019 -10.003025152552128 92.05914011577457 0 0 0
18 1 10 1 2.8103819214901 -11.631062907866125 90.60124980674082 0 0 0
19 2 8 0 6.412032426142256 -6.526699963763212 95.9266411141668 0 0 0
20 1 6 0 4.559614994193561 -7.811053296894907 96.38203783515426 0 0 0
21 2 8 0 5.969322750713406 -4.402457180652181 98.81510103974693 0 0 0
22 1 2 0 8.149855469659391 -3.0736347314439936 97.99369495254862 0 0 0
23 2 8 0 6.518363717598302 -3.995803596288087 102.38504317919484 0 0 0
24 1 9 -1 4.859398523335683 -7.841465112705067 103.1665941918451 0 0 0
25 2 8 0 4.925946132820503 -2.3284190116123127 105.28073564948171 0 0 0
26 1 12 0 4.926097757306392 0.30273120380766483 104.55303480373158 0 0 0
27 1 12 0 3.241687978822121 0.18315261752427092 102.97548459538669 0 0 0
28 1 12 0 2.5709552017404746 1.643623373161041 104.30022710383055 0 0 0
29 2 8 0 5.084351956301942 -0.5333938763203994 108.19705050881316 0 0 0
30 1 6 0 5.799725996426835 -2.4898874434452205 109.832860065123 0 0 0
31 2 8 0 4.910474507832895 1.9032921885448628 110.82568659131019 0 0 0
32 1 12 0 2.4105886641452976 3.099167096106321 110.55008910584422 0 0 0
33 1 12 0 1.9436088311144886 5.1482756108104235 111.51262956240159 0 0 0
34 1 12 0 1.3675401145927548 5.4119868349461875 109.53101375097147 0 0 0
35 2 8 0 8.172357405473544 1.8877649810007044 111.06333942193794 0 0 0
36 2 8 0 8.223154462131395 3.1831851406156324 108.32918392725622 0 0 0
37 1 8 0 8.697602005859109 0.4433368505017746 106.58069003953145 0 0 0
38 2 8 0 9.104221829370438 6.378734657130962 107.60787707030482 0 0 0
39 1 9 -1 10.235185237596612 6.844512572850026 110.75642795960006 0 0 0
40 2 8 0 10.216273436217115 5.403347872554748 104.79020749347653 0 0 0
41 1 6 0 11.680089840660532 7.560812809448033 104.05973738446563 0 0 0
42 2 8 0 9.017484152084204 4.643075265123479 101.54179406310197 0 0 0
43 1 2 0 6.771828045807025 3.350049615549405 102.26381436882996 0 0 0
44 2 8 0 10.069823626240947 2.1956938004935322 99.03599965858325 0 0 0
45 1 2 0 12.59042473476886 3.1133712614703355 99.00883112341796 0 0 0
46 2 8 0 9.76107013722104 2.112238263614856 95.46828239731067 0 0 0
47 1 1 0 6.672929142652443 2.332437308247235 95.50141211822537 0 0 0
48 2 7 0 10.94232086344938 0.11371598513201625 93.16646671741952 0 0 0
49 1 3 0 11.194637841778402 -1.4046806986554838 94.70103755420422 0 0 0
50 2 8 0 13.155559125429189 1.123516559110402 90.20944470253673 0 0 0
51 1 4 0 11.034888294023938 1.898953305704715 88.34462485148995 0 0 0
52 2 8 0 14.84721443050796 -0.8350218798450992 87.5181569973791 0 0 0
53 1 12 0 16.65787766477295 -0.7588325346125165 90.12326617661786 0 0 0
54 1 12 0 15.605833828834067 -0.8966836217544072 92.1665969978597 0 0 0
55 1 12 0 17.301761140146663 0.20876987737326086 92.57537947792757 0 0 0
56 2 8 0 16.858991519468027 -0.12195341037818325 84.88107787414683 0 0 0
57 1 2 0 15.373641656129546 1.3645111601966429 83.30280069193005 0 0 0
58 2 8 0 19.000882803171045 -2.204853062214965 82.73239670441147 0 0 0
59 1 6 0 17.78779790723094 -4.310749460905509 83.23162149668862 0 0 0
60 2 8 0 19.212907012196293 -0.11508808668198314 79.78629282270212 0 0 0
61 1 8 0 17.428098758487735 -1.4734384227286583 78.47532224253806 0 0 0
62 2 8 0 20.54664769124809 2.436044906516365 80.36952198183019 0 0 0
63 1 4 0 17.949346562082162 4.839931496819423 82.33254416850932 0 0 0
64 2 8 0 22.178179461086003 5.360335508562088 78.3192223552398 0 0 0
65 1 9 -1 22.326399256437192 2.4746602959937474 75.41085348939167 0 0 0
66 2 7 0 21.83055297753958 8.159897323251752 79.72036812698116 0 0 0
67 2 8 0 24.240296685744603 11.230019683891062 80.04003037290441 0 0 0
68 1 7 0 26.71096934865122 9.009663452786874 79.38520612185474 0 0 0
69 2 8 0 21.50111526068929 12.90389728811542 80.53310124682426 0 0 0
70 1 8 0 22.13584015534296 15.971697344881186 79.93826755593673 0 0 0
71 2 8 0 18.566738339711844 14.02723960380969 82.2104903273317 0 0 0
72 1 6 0 19.368385853297337 14.312135253231984 84.59103558691035 0 0 0
73 2 8 0 17.111844867833625 15.526839413127883 79.74966010210709 0 0 0
74 1 6 0 18.822316253223576 17.312069357789944 79.3956238265024 0 0 0
75 2 8 0 16.35083086934223 12.513586293235807 78.50898958599056 0 0 0
76 1 9 -1 19.867751043720233 11.831754162934793 76.61896910114332 0 0 0
77 2 8 0 14.421449906938062 12.114017067487412 81.001745798649 0 0 0
78 1 2 0 15.827461729959612 9.986699146035253 82.12448762765158 0 0 0
79 2 8 0 11.410660879220767 10.345190840844024 82.18656781503613 0 0 0
80 1 11 0 9.552610232593985 12.766570579356788 81.05441590098499 0 0 0
81 1 11 0 7.549073980334388 12.581491088381867 82.19695170694558 0 0 0
82 1 14 0 7.041146473826837 14.846972425362209 81.99445736152617 0 0 0
83 2 8 0 9.054798993172396 10.344282731176712 85.05306636713789 0 0 0
84 1 2 0 10.94959815158157 9.024644642859041 86.40502474858059 0 0 0
85 2 8 0 6.35788905481555 8.022106043360553 86.06735045700385 0 0 0
86 1 3 0 4.503884448462772 9.704466423572265 83.84633031510585 0 0 0
87 1 10 1 3.0764320028593577 10.776165645295734 81.29691071572678 0 0 0
88 2 8 0 3.9821501501502343 7.879980687765542 88.71690986191567 0 0 0
89 1 11 0 6.342101562415014 6.5401788443884685 90.49434069101505 0 0 0
90 1 13 0 8.437681228387017 6.41324959354026 90.62096939567478 0 0 0
91 1 12 0 6.467000285981751 3.7148325043441135 91.22913206797134 0 0 0
92 1 12 0 8.58803905486911 3.5564868772757254 91.37203484353968 0 0 0
93 2 8 0 1.2550029000667777 5.548184887663761 89.22533510026436 0 0 0
94 1 3 0 0.9730795240052075 6.104470544591242 85.92278071344091 0 0 0
95 1 10 1 0.9410121165970491 6.337580455048325 82.76068782248579 0 0 0
96 2 8 0 -2.1953420667506442 5.91053924162914 90.78158666480012 0 0 0
97 1 12 0 -1.4737797035186802 4.877848944008805 93.37997049040554 0 0 0
98 1 12 0 -3.0919622538340725 5.518988681477602 94.86944189694319 0 0 0
99 1 12 0 -2.702056719874335 3.554640667857634 95.40161720262246 0 0 0
100 2 8 0 -5.312004192935813 5.2766427743499245 90.13839737697427 0 0 0
101 1 3 0 -6.099118678520146 3.9714469268925443 92.9118094607374 0 0 0
102 1 10 1 -6.791323830817497 2.5840577844124777 95.66687813401242 0 0 0
103 2 8 0 -5.132184586737189 7.2289064621191415 87.40736617930474 0 0 0
104 2 8 0 -2.37016412972136 8.832588896562095 88.3575480800402 0 0 0
105 1 5 0 -4.399039244795524 10.128563585811735 90.31576547661729 0 0 0
106 1 10 1 -4.336237303850204 11.821002471141876 93.10986757490144 0 0 0
107 2 8 0 0.027245022873469082 11.271206751013471 88.70636366886268 0 0 0
108 1 9 -1 0.6298748441305495 11.018151460325553 85.4623999948388 0 0 0
109 2 8 0 2.123323305994454 11.24241455610253 91.73763845689176 0 0 0
110 1 1 0 1.3319902884877575 9.155691347972105 92.71399817956245 0 0 0
111 2 8 0 4.798603703657001 11.475413166707463 89.8763790871803 0 0 0
112 1 11 0 7.0943056228709285 12.132585549752182 91.84266420309834 0 0 0
113 1 11 0 8.912042704010037 11.793075379026929 90.4266611141801 0 0 0
114 1 14 0 10.19070544099927 13.531229705580273 91.36391302381759 0 0 0
115 2 8 0 7.148540306571016 13.771021865820227 88.25984617293363 0 0 0
116 1 6 0 5.305134337241643 14.218992531728956 86.62565624678487 0 0 0
117 2 8 0 10.019219911132407 13.86098070432057 85.80448346748034 0 0 0
118 1 12 0 12.310265507205427 14.34032226074933 87.45319258342374 0 0 0
119 1 12 0 14.160855135913343 14.068301511739978 86.07921196557389 0 0 0
120 1 12 0 14.585086218525559 15.796604825188545 87.14818139697424 0 0 0
121 2 8 0 11.447571400498244 16.518208430393553 84.08493328367778 0 0 0
122 1 9 -1 9.992453789708158 17.795819995786008 81.66906047519967 0 0 0
123 2 8 0 14.522700630195569 16.78524951932645 82.59172556956608 0 0 0
124 2 7 0 14.327061315795778 19.238144712683695 80.40677009426089 0 0 0
125 2 8 0 13.308902411544576 21.189381613554275 83.29001947688026 0 0 0
126 1 1 0 10.704528257176353 22.066150588185668 81.50496725658455 0 0 0
127 2 8 0 13.813596327648185 20.080175199246018 86.22128971032947 0 0 0
128 1 8 0 16.553780664659556 19.663132096786544 87.14517544454587 0 0 0
129 2 8 0 10.765599232665178 18.905217830229915 87.09300577073556 0 0 0
130 1 3 0 8.720751460544072 21.15609822477154 86.63058276274454 0 0 0
131 1 10 1 6.045572567655816 22.887005860997633 86.89397723098439 0 0 0
132 2 8 0 8.816204365465516 18.41486429654413 89.87809339300843 0 0 0
133 1 6 0 10.632832943228859 16.616337436745585 90.98703962481443 0 0 0
134 2 8 0 5.573653116150798 16.594868095570714 90.49101689884733 0 0 0
135 1 6 0 4.715721261635533 18.51905318015892 88.76391971187252 0 0 0
136 2 8 0 2.983811401921331 16.853691485697606 93.03287258868502 0 0 0
137 1 2 0 4.63623486180631 15.42814268596849 94.46123085215139 0 0 0
138 2 7 0 0.4675828438384677 16.157135793904146 94.85034446239266 0 0 0
139 1 3 0 -0.2816794235651159 14.599005414956704 93.51231016655179 0 0 0
140 2 8 0 -0.7836074070603907 17.134099945481747 97.99318776147518 0 0 0
141 1 6 0 -2.1458206375387796 19.18849809133827 97.42925215077938 0 0 0
142 2 8 0 -1.133969371001733 13.827751404447861 98.8440143122047 0 0 0
143 1 9 -1 -3.3030452650321998 13.162339579612356 97.25362540715504 0 0 0
144 2 8 0 2.138149374984698 13.613343017257106 97.74157703250741 0 0 0
145 1 12 0 1.422287419477744 10.907886907561151 96.53287984165823 0 0 0
146 1 12 0 -0.7000461221780299 10.21186238890269 95.95933803203218 0 0 0
147 1 12 0 0.29899666765879473 8.442769579497861 96.41323684871618 0 0 0
148 2 8 0 4.283161648136179 15.717305386164151 99.17261326484135 0 0 0
149 1 6 0 2.940659665795785 16.796235037876414 100.78099730917533 0 0 0
150 2 8 0 6.789613117850259 13.505989525075359 99.81267825565502 0 0 0
151 1 6 0 5.967527216150302 12.39053675450556 101.5876542799591 0 0 0
152 2 7 0 7.047713480995974 12.541117961866311 96.85805356391248 0 0 0
153 2 8 0 10.320269649952207 11.112284253645917 95.57348735102984 0 0 0
154 1 3 0 11.800608286396658 12.909229381692636 97.42707461043763 0 0 0
155 1 10 1 13.545365802494421 13.156054063950819 100.07142685366254 0 0 0
156 2 8 0 13.41358487960822 11.306188270401078 93.88606264981667 0 0 0
157 1 1 0 12.722412992110389 10.187265213349487 91.24038832852709 0 0 0
158 2 8 0 16.833039221538705 10.364710416518774 93.09129761906735 0 0 0
159 1 9 -1 17.691229644710855 11.038202459881903 96.51452966862259 0 0 0
160 2 8 0 18.438204317355023 11.976830661465147 90.55849021797917 0 0 0
161 1 2 0 17.12531052695182 14.055250385398566 89.8531666423876 0 0 0
162 2 8 0 21.464102108177684 10.887148689442094 91.05188231291221 0 0 0
163 1 6 0 21.72572449918718 11.684413947825037 93.28159570980834 0 0 0
164 2 8 0 20.31500425763005 7.761821834138112 90.15896228436401 0 0 0
165 1 7 0 21.575345973665268 7.024029628241819 93.26415171815708 0 0 0
166 2 8 0 18.951327277939555 7.853755672850342 87.2651700899655 0 0 0
167 1 1 0 16.495525770722093 9.539852859894074 86.7056030850486 0 0 0
168 2 8 0 21.489916893930825 7.033812009142223 85.2933295411568 0 0 0
169 1 1 0 22.024901097836374 10.05317143477458 84.21413513771664 0 0 0
170 2 8 0 21.475500983014015 4.048865763117167 86.63846451202531 0 0 0
171 1 3 0 23.39973788837363 4.776110680001903 89.14908737556284 0 0 0
172 1 10 1 25.073578721610946 5.881759644616807 91.64514371147223 0 0 0
173 2 8 0 18.10518769223866 3.4463414867150672 86.67385968640119 0 0 0
174 2 8 0 17.05664511859708 4.7887780155851205 89.27120884221688 0 0 0
175 1 9 -1 17.428242297083013 3.8160863273064187 92.13963810167141 0 0 0
176 2 7 0 13.30082900592822 5.341680270961522 89.75602264546171 0 0 0
177 2 8 0 12.76162655317472 5.3157969772032425 92.915309079144 0 0 0
178 1 6 0 13.9500347315924 2.909553623194975 93.64952902082426 0 0 0
179 2 8 0 10.313154605124549 5.732169017174419 95.41725221277865 0 0 0
180 1 1 0 7.553777637801751 7.3379675365419095 94.31732045698392 0 0 0
181 2 8 0 9.698861367672054 8.216846462538674 97.91809643242095 0 0 0
182 1 3 0 12.94186025990902 7.866908875392559 98.79325462957858 0 0 0
183 1 10 1 16.116642986629962 8.099654064304195 98.89064207821968 0 0 0
184 2 8 0 7.909453043841239 8.15412486089772 101.17396557157451 0 0 0
185 1 4 0 4.81019202768522 7.3778514747175485 99.0181871080853 0 0 0
186 2 8 0 5.915302646199734 8.71913997839286 103.62694786025664 0 0 0
187 1 9 -1 5.239413930129862 11.277406030821716 104.78701218971405 0 0 0
188 2 8 0 3.8237417391837205 6.93563540355048 105.78485990752793 0 0 0
189 1 3 0 5.042043074380931 6.452703955683451 108.54453725702331 0 0 0
190 1 10 1 6.375731941112486 6.906761232905807 111.32259521101881 0 0 0
191 2 8 0 1.1949916751890086 8.737855973731062 105.46194487618726 0 0 0
192 1 6 0 1.842159715193425 10.817254307101592 106.60184666983997 0 0 0
193 2 8 0 1.1729616249329773 8.481363831379692 102.2668507527227 0 0 0
194 1 9 -1 2.2964087347544684 11.60323735257112 101.7123488959922 0 0 0
195 2 7 0 1.7092574628464128 5.24353701795218 102.219266086216 0 0 0
196 2 8 0 -1.108057617476934 4.2302062257856985 103.91467059365071 0 0 0
197 1 2 0 -0.9144902414554394 4.48220108182408 106.31657197869347 0 0 0
198 2 8 0 -3.3137490161127516 5.987840710524482 102.08804899297886 0 0 0
199 1 6 0 -2.976382421196025 8.04999915767917 102.87436083917147 0 0 0
200 2 8 0 -1.6323617512409214 4.462109053833732 99.34506161107231 0 0 0
201 1 11 0 -1.8407734124694564 6.887196275060093 98.66873583978412 0 0 0
202 1 14 0 -3.3699383538240006 8.743883311960735 98.42672792847276 0 0 0
203 1 14 0 -1.9852731914512738 9.063809090338275 99.45281266397994 0 0 0
204 2 8 0 -2.4048287502032366 1.6189420033367807 98.63499410830751 0 0 0
205 1 6 0 -2.2719143275462343 0.47335957720401267 100.97774348909614 0 0 0
206 2 8 0 -1.053589771510918 -0.4303927000868075 95.96301347667743 0 0 0
207 2 8 0 -0.6314575141807595 0.08815562600441273 92.57995096013575 0 0 0
208 1 8 0 -1.090647720129029 -3.1919327820270778 91.79600938689283 0 0 0
209 2 8 0 2.398054689621837 0.9138093081230184 90.91536338232102 0 0 0
210 1 11 0 2.7403895871870656 3.245853394204868 93.26565638500807 0 0 0
211 1 11 0 1.7014637544103977 2.6102743980368643 95.2247562940529 0 0 0
212 1 14 0 1.4578571850256026 4.790446489455879 95.99254890351864 0 0 0
213 2 8 0 3.675742811093011 2.964602424504339 88.16249929957839 0 0 0
214 1 6 0 2.1088094742607133 1.7699179116798418 86.33505604936762 0 0 0
215 2 8 0 6.710776023032496 2.6844294090309386 86.35156680944385 0 0 0
216 1 4 0 9.221115267247654 3.2589918919179235 87.6997043514669 0 0 0
217 2 8 0 7.786710522809162 5.243309390469435 84.07791375922187 0 0 0
218 1 9 -1 5.187915364792264 6.335405623130232 81.37869358567619 0 0 0
219 2 8 0 10.217754169138438 5.2320273387239755 81.46967690169714 0 0 0
220 1 2 0 12.193929367216116 5.061163998646579 83.34508013980894 0 0 0
221 2 8 0 12.183101739746544 7.66859018979289 79.6085561642124 0 0 0
222 1 6 0 9.85220070771328 8.148857434940675 78.28933527592098 0 0 0
223 2 8 0 14.529555697672116 7.590273528544281 76.72673029787241 0 0 0
224 1 9 -1 18.029122542252708 6.500900501115346 77.88685887153248 0 0 0
225 2 8 0 13.784650439382077 9.585522021692515 74.62818327510604 0 0 0
226 1 1 0 17.162317482695652 10.477696498588895 73.56738638253516 0 0 0
227 2 8 0 12.133554836777071 7.0518026449220095 72.7992083078536 0 0 0
228 1 6 0 12.150381578649057 7.984599334279607 70.40747103192184 0 0 0
229 2 8 0 12.404291586066705 5.129103279323187 74.93776594376385 0 0 0
230 1 5 0 14.917176576184438 2.994650269907143 74.10007902310929 0 0 0
231 1 10 1 17.763202247060097 2.4770164484355774 75.73338643679035 0 0 0
232 2 8 0 10.196151055247011 2.713436853434419 76.70289231742242 0 0 0
233 1 9 -1 6.752793596094339 4.178182035755164 75.89066638865269 0 0 0
234 2 8 0 8.834770816139558 1.8816209274562379 80.1025873198979 0 0 0
235 2 8 0 7.24268211914791 -0.4542311708419288 82.44060967988241 0 0 0
236 1 9 -1 3.556784515352007 0.607020520409912 81.89251871831972 0 0 0
237 2 8 0 6.198492725723369 -0.9903147059328846 85.9764381477332 0 0 0
238 1 6 0 8.213813750995156 -2.5816134434525053 86.49252873383796 0 0 0
239 2 8 0 4.834195432209738 -3.1172488715038225 88.69322742006156 0 0 0
240 1 1 0 1.9332863254157413 -2.752601486018711 87.43419658708783 0 0 0
241 2 8 0 3.9215886026911626 -2.242197302279882 92.14197118060898 0 0 0
242 1 1 0 6.721353715236905 -1.7000645842806645 92.29266102979098 0 0 0
243 2 8 0 3.0095406545551526 -3.5187798299296715 95.30739462627942 0 0 0
244 1 9 -1 -0.3606846940284818 -5.643690239972232 95.61745405454622 0 0 0
245 2 8 0 1.6947905612811809 -1.7813020756783653 97.9900431768201 0 0 0
246 1 1 0 3.287054410610713 0.886722423682682 98.97824412041787 0 0 0
247 2 8 0 1.9959325836211406 -2.9843469917774366 101.43342761835856 0 0 0
248 1 3 0 1.3638047773455515 -5.882362909816891 99.96165379900886 0 0 0
249 1 10 1 1.031002781520593 -8.65993844327026 98.51219976816274 0 0 0
250 2 8 0 0.16108184095825884 -3.3360663384264964 104.42984485454951 0 0 0
251 1 11 0 -0.03336371918099701 -1.0026091576781209 106.11714106735744 0 0 0
252 1 11 0 -1.2957290525394534 -1.5284642214472703 107.99855282905213 0 0 0
253 1 14 0 0.1499131158712519 -0.44735111955477325 109.48926178180889 0 0 0
254 2 8 0 1.8588695701784275 -4.706153164330884 107.24000124094383 0 0 0
255 1 5 0 1.8683770864012992 -7.678172735756741 106.41585970322295 0 0 0
256 1 10 1 0.03538004047657317 -10.909293386339996 106.97234974896118 0 0 0
257 2 9 -1 1.7652969942158698 -5.759437231023336 110.47778394641982 0 0 0
258 1 2 0 -0.5366800571592147 -5.040598624205971 111.51560508336553 0 0 0
259 4 22 0 17.758471621672378 56.83553056591778 112.98085642551135 0 0 0
260 4 21 0 18.399999999999835 56.79500000000001 111.20465299880964 0 0 0
261 3 27 0 16.83080165657064 54.245283325560955 110.76515164606263 0 0 0
262 3 23 0 17.574897921186455 52.05554717483699 110.63994645768227 0 0 0
263 3 24 0 15.055422080129693 51.47618496246153 109.94203463431002 0 0 0
264 3 28 0 15.256517921799965 54.37616922106335 110.39596388245845 0 0 0
265 4 20 -1 20.674809695861207 57.79564880682265 110.25357844178502 0 0 0
266 4 22 0 21.497662982445927 54.2811830483536 110.40960055978539 0 0 0
267 4 21 0 22.06957264022447 54.17343332831619 108.61254481741915 0 0 0
268 3 27 0 19.46789517875607 53.94056410288079 108.07920973481868 0 0 0
269 3 29 0 18.946101966735366 51.83099312396362 107.62507084769324 0 0 0
270 3 30 0 16.89560991743831 54.31570794303155 107.33408180378639 0 0 0
271 4 20 -1 24.55954588076373 53.95548765577888 107.68225833185642 0 0 0
272 4 22 0 23.414653575448575 50.54962140588607 107.31037569301556 0 0 0
273 4 21 0 23.88976630231052 50.43573813648794 105.4870001152135 0 0 0
274 3 27 0 20.978003991307318 50.83964875437665 104.77545499578818 0 0 0
275 3 23 0 19.4035990603247 49.31252267243272 104.04460956538296 0 0 0
276 3 24 0 17.83416099406496 51.45521220976755 103.68649547354808 0 0 0
277 3 28 0 20.42062473145785 52.3599154802431 104.72332589726378 0 0 0
278 4 20 -1 25.921164459332996 49.0861097588073 104.39827390086718 0 0 0
279 4 22 0 23.178773366139986 46.874053901983196 103.63165797469173 0 0 0
280 4 21 0 23.56762544562641 46.78361622256432 101.78571239412322 0 0 0
281 3 27 0 22.22971487385104 49.10026717042079 101.67159102133363 0 0 0
282 3 31 0 20.197468779506348 48.84102962828881 100.86631361026951 0 0 0
283 3 32 0 21.033778864686063 51.472431397836644 101.3073466800582 0 0 0
284 4 20 -1 24.613036356443985 44.763372058642396 100.41027444725577 0 0 0
285 4 22 0 21.133977076225644 44.4307416304521 99.5023077501966 0 0 0
286 4 21 0 21.467586606925607 44.432510555995265 97.64427073443814 0 0 0
287 3 27 0 21.540468245858104 47.082808906787726 97.92123087325464 0 0 0
288 3 31 0 19.689010357940713 48.03634997168702 97.20188177384655 0 0 0
289 3 32 0 21.77373863032979 49.75788500215219 97.95209852198197 0 0 0
290 4 20 -1 21.333315539832324 42.37938753625056 95.94934974916005 0 0 0
291 4 22 0 18.22243181471611 44.042050726391864 95.20185154517807 0 0 0
292 4 21 0 18.539694794606508 44.1444725975525 93.34248230753349 0 0 0
293 3 27 0 19.315365281360396 47.0510926271636 93.70303091652067 0 0 0
294 3 23 0 18.132665116969722 48.96832031417849 93.18335956143771 0 0 0
295 3 24 0 20.383312614520094 50.258420589328914 93.83045083925492 0 0 0
296 3 28 0 20.82893318043065 47.37863756742498 94.17348444984061 0 0 0
297 4 20 -1 17.400229806599864 42.73150098179664 91.39578491087029 0 0 0
298 4 22 0 15.637014227216632 45.86033299863255 91.05699141765825 0 0 0
299 4 21 0 16.005186368710095 46.050721357381576 89.21405855206577 0 0 0
300 3 27 0 18.164377219532717 48.04207813488902 89.92009895770774 0 0 0
301 3 25 0 18.06438095093072 50.998854439941795 89.65200451885434 0 0 0
302 3 26 0 20.7854124513419 50.18736964980625 90.43429603047178 0 0 0
303 3 28 0 19.64230187361416 47.4910468067302 90.35403811501642 0 0 0
304 4 20 -1 14.33791297212554 45.73883248814915 87.15857205143135 0 0 0
305 4 22 0 14.482373549710436 49.34146440621338 87.34929280140015 0 0 0
306 4 21 0 14.938578594681623 49.56833638409471 85.53124272986882 0 0 0
307 3 27 0 17.419579316249592 49.032444974753865 86.36079430570601 0 0 0
308 3 31 0 18.647108164861486 50.86299918332368 86.49951782682949 0 0 0
309 3 32 0 19.971458999793857 48.434906683259804 86.91744327131393 0 0 0
310 4 20 -1 13.4038426270746 50.4711534479725 83.54871735578041 0 0 0
311 4 22 0 15.402710808688967 53.39971302305867 84.21943697507056 0 0 0
312 4 21 0 15.955417408559722 53.62273034878212 82.42732127375928 0 0 0
313 3 27 0 17.76928226098115 51.763486973457645 83.03626163903508 0 0 0
314 3 29 0 19.762130770270545 52.68347130069697 83.35372605697358 0 0 0
315 3 30 0 19.234709986160478 49.49734865507278 83.30034250586097 0 0 0
316 4 20 -1 15.173094576351543 55.465493068779224 80.67669380225237 0 0 0
317 4 22 0 18.400000000000013 56.795 81.63 0 0 0
318 4 21 0 19.028135587688215 56.95500439488562 79.85631900357001 0 0 0
319 3 27 0 19.583445832049726 54.35603264721315 80.1028476779823 0 0 0
320 3 29 0 21.75256188804019 54.04897615443708 80.4303409540789 0 0 0
321 3 30 0 19.635127586350873 51.65636491070637 79.97199238104422 0 0 0

Velocities

1 0 0 0
2 0 0 0
3 0 0 0
4 0 0 0
5 0 0 0
6 0 0 0
7 0 0 0
8 0 0 0
9 0 0 0
10 0 0 0
11 0 0 0
12 0 0 0
13 0 0 0
14 0 0 0
15 0 0 0
16 0 0 0
17 0 0 0
18 0 0 0
19 0 0 0
20 0 0 0
21 0 0 0
22 0 0 0
23 0 0 0
24 0 0 0
25 0 0 0
26 0 0 0
27 0 0 0
28 0 0 0
29 0 0 0
30 0 0 0
31 0 0 0
32 0 0 0
33 0 0 0
34 0 0 0
35 0 0 0
36 0 0 0
37 0 0 0
38 0 0 0
39 0 0 0
40 0 0 0
41 0 0 0
42 0 0 0
43 0 0 0
44 0 0 0
45 0 0 0
46 0 0 0
47 0 0 0
48 0 0 0
49 0 0 0
50 0 0 0
51 0 0 0
52 0 0 0
53 0 0 0
54 0 0 0
55 0 0 0
56 0 0 0
57 0 0 0
58 0 0 0
59 0 0 0
60 0 0 0
61 0 0 0
62 0 0 0
63 0 0 0
64 0 0 0
65 0 0 0
66 0 0 0
67 0 0 0
68 0 0 0
69 0 0 0
70 0 0 0
71 0 0 0
72 0 0 0
73 0 0 0
74 0 0 0
75 0 0 0
76 0 0 0
77 0 0 0
78 0 0 0
79 0 0 0
80 0 0 0
81 0 0 0
82 0 0 0
83 0 0 0
84 0 0 0
85 0 0 0
86 0 0 0
87 0 0 0
88 0 0 0
89 0 0 0
90 0 0 0
91 0 0 0
92 0 0 0
93 0 0 0
94 0 0 0
95 0 0 0
96 0 0 0
97 0 0 0
98 0 0 0
99 0 0 0
100 0 0 0
101 0 0 0
102 0 0 0
103 0 0 0
104 0 0 0
105 0 0 0
106 0 0 0
107 0 0 0
108 0 0 0
109 0 0 0
110 0 0 0
111 0 0 0
112 0 0 0
113 0 0 0
114 0 0 0
115 0 0 0
116 0 0 0
117 0 0 0
118 0 0 0
119 0 0 0
120 0 0 0
121 0 0 0
122 0 0 0
123 0 0 0
124 0 0 0
125 0 0 0
126 0 0 0
127 0 0 0
128 0 0 0
129 0 0 0
130 0 0 0
131 0 0 0
132 0 0 0
133 0 0 0
134 0 0 0
135 0 0 0
136 0 0 0
137 0 0 0
138 0 0 0
139 0 0 0
140 0 0 0
141 0 0 0
142 0 0 0
143 0 0 0
144 0 0 0
145 0 0 0
146 0 0 0
147 0 0 0
148 0 0 0
149 0 0 0
150 0 0 0
151 0 0 0
152 0 0 0
153 0 0 0
154 0 0 0
155 0 0 0
156 0 0 0
157 0 0 0
158 0 0 0
159 0 0 0
160 0 0 0
161 0 0 0
162 0 0 0
163 0 0 0
164 0 0 0
165 0 0 0
166 0 0 0
167 0 0 0
168 0 0 0
169 0 0 0
170 0 0 0
171 0 0 0
172 0 0 0
173 0 0 0
174 0 0 0
175 0 0 0
176 0 0 0
177 0 0 0
178 0 0 0
179 0 0 0
180 0 0 0
181 0 0 0
182 0 0 0
183 0 0 0
184 0 0 0
185 0 0 0
186 0 0 0
187 0 0 0
188 0 0 0
189 0 0 0
190 0 0 0
191 0 0 0
192 0 0 0
193 0 0 0
194 0 0 0
195 0 0 0
196 0 0 0
197 0 0 0
198 0 0 0
199 0 0 0
200 0 0 0
201 0 0 0
202 0 0 0
203 0 0 0
204 0 0 0
205 0 0 0
206 0 0 0
207 0 0 0
208 0 0 0
209 0 0 0
210 0 0 0
211 0 0 0
212 0 0 0
213 0 0 0
214 0 0 0
215 0 0 0
216 0 0 0
217 0 0 0
218 0 0 0
219 0 0 0
220 0 0 0
221 0 0 0
222 0 0 0
223 0 0 0
224 0 0 0
225 0 0 0
226 0 0 0
227 0 0 0
228 0 0 0
229 0 0 0
230 0 0 0
231 0 0 0
232 0 0 0
233 0 0 0
234 0 0 0
235 0 0 0
236 0 0 0
237 0 0 0
238 0 0 0
239 0 0 0
240 0 0 0
241 0 0 0
242 0 0 0
243 0 0 0
244 0 0 0
245 0 0 0
246 0 0 0
247 0 0 0
248 0 0 0
249 0 0 0
250 0 0 0
251 0 0 0
252 0 0 0
253 0 0 0
254 0 0 0
255 0 0 0
256 0 0 0
257 0 0 0
258 0 0 0
259 0 0 0
260 0 0 0
261 0 0 0
262 0 0 0
263 0 0 0
264 0 0 0
265 0 0 0
266 0 0 0
267 0 0 0
268 0 0 0
269 0 0 0
270 0 0 0
271 0 0 0
272 0 0 0
273 0 0 0
274 0 0 0
275 0 0 0
276 0 0 0
277 0 0 0
278 0 0 0
279 0 0 0
280 0 0 0
281 0 0 0
282 0 0 0
283 0 0 0
284 0 0 0
285 0 0 0
286 0 0 0
287 0 0 0
288 0 0 0
289 0 0 0
290 0 0 0
291 0 0 0
292 0 0 0
293 0 0 0
294 0 0 0
295 0 0 0
296 0 0 0
297 0 0 0
298 0 0 0
299 0 0 0
300 0 0 0
301 0 0 0
302 0 0 0
303 0 0 0
304 0 0 0
305 0 0 0
306 0 0 0
307 0 0 0
308 0 0 0
309 0 0 0
310 0 0 0
311 0 0 0
312 0 0 0
313 0 0 0
314 0 0 0
315 0 0 0
316 0 0 0
317 0 0 0
318 0 0 0
319 0 0 0
320 0 0 0
321 0 0 0

Bonds

1 18 1 3
2 2 1 2
3 13 3 5
4 1 3 4
5 13 5 9
6 22 5 6
7 23 6 7
8 24 6 8
9 25 7 8
10 13 9 11
11 14 9 10
12 13 11 14
13 4 11 12
14 5 12 13
15 13 14 16
16 26 14 15
17 13 16 19
18 4 16 17
19 5 17 18
20 13 19 21
21 10 19 20
22 13 21 23
23 27 21 22
24 13 23 25
25 16 23 24
26 13 25 29
27 22 25 26
28 28 26 27
29 29 26 28
30 30 27 28
31 13 29 31
32 31 29 30
33 13 31 35
34 22 31 32
35 32 32 33
36 33 32 34
37 34 33 34
38 13 35 36
39 13 36 38
40 14 36 37
41 13 38 40
42 17 38 39
43 13 40 42
44 35 40 41
45 13 42 44
46 36 42 43
47 13 44 46
48 37 44 45
49 11 46 48
50 38 46 47
51 11 48 50
52 3 48 49
53 13 50 52
54 7 50 51
55 13 52 56
56 22 52 53
57 39 53 54
58 40 53 55
59 41 54 55
60 13 56 58
61 42 56 57
62 13 58 60
63 43 58 59
64 13 60 62
65 14 60 61
66 13 62 64
67 6 62 63
68 11 64 66
69 16 64 65
70 11 66 67
71 13 67 69
72 12 67 68
73 13 69 71
74 14 69 70
75 13 71 73
76 44 71 72
77 13 73 75
78 45 73 74
79 13 75 77
80 16 75 76
81 13 77 79
82 46 77 78
83 13 79 83
84 20 79 80
85 47 80 81
86 48 80 82
87 49 81 82
88 13 83 85
89 50 83 84
90 13 85 88
91 4 85 86
92 5 86 87
93 13 88 93
94 19 88 89
95 51 89 90
96 52 89 91
97 53 90 91
98 54 90 92
99 55 91 92
100 13 93 96
101 4 93 94
102 5 94 95
103 13 96 100
104 22 96 97
105 56 97 98
106 57 97 99
107 58 98 99
108 13 100 103
109 4 100 101
110 5 101 102
111 13 103 104
112 13 104 107
113 8 104 105
114 9 105 106
115 13 107 109
116 17 107 108
117 13 109 111
118 59 109 110
119 13 111 115
120 20 111 112
121 60 112 113
122 61 112 114
123 62 113 114
124 13 115 117
125 63 115 116
126 13 117 121
127 22 117 118
128 64 118 119
129 65 118 120
130 66 119 120
131 13 121 123
132 17 121 122
133 11 123 124
134 11 124 125
135 13 125 127
136 1 125 126
137 13 127 129
138 14 127 128
139 13 129 132
140 4 129 130
141 5 130 131
142 13 132 134
143 10 132 133
144 13 134 136
145 67 134 135
146 11 136 138
147 68 136 137
148 11 138 140
149 3 138 139
150 13 140 142
151 69 140 141
152 13 142 144
153 17 142 143
154 13 144 148
155 22 144 145
156 70 145 146
157 71 145 147
158 72 146 147
159 13 148 150
160 10 148 149
161 11 150 152
162 10 150 151
163 11 152 153
164 13 153 156
165 4 153 154
166 5 154 155
167 13 156 158
168 73 156 157
169 13 158 160
170 16 158 159
171 13 160 162
172 74 160 161
173 13 162 164
174 10 162 163
175 13 164 166
176 12 164 165
177 13 166 168
178 1 166 167
179 13 168 170
180 1 168 169
181 13 170 173
182 4 170 171
183 5 171 172
184 13 173 174
185 11 174 176
186 17 174 175
187 11 176 177
188 13 177 179
189 10 177 178
190 13 179 181
191 1 179 180
192 13 181 184
193 4 181 182
194 5 182 183
195 13 184 186
196 6 184 185
197 13 186 188
198 17 186 187
199 13 188 191
200 4 188 189
201 5 189 190
202 13 191 193
203 10 191 192
204 11 193 195
205 17 193 194
206 11 195 196
207 13 196 198
208 75 196 197
209 13 198 200
210 10 198 199
211 13 200 204
212 21 200 201
213 76 201 202
214 77 201 203
215 78 202 203
216 13 204 206
217 79 204 205
218 13 206 207
219 13 207 209
220 14 207 208
221 13 209 213
222 20 209 210
223 80 210 211
224 81 210 212
225 82 211 212
226 13 213 215
227 83 213 214
228 13 215 217
229 7 215 216
230 13 217 219
231 16 217 218
232 13 219 221
233 84 219 220
234 13 221 223
235 85 221 222
236 13 223 225
237 16 223 224
238 13 225 227
239 1 225 226
240 13 227 229
241 86 227 228
242 13 229 232
243 8 229 230
244 9 230 231
245 13 232 234
246 16 232 233
247 13 234 235
248 13 235 237
249 16 235 236
250 13 237 239
251 87 237 238
252 13 239 241
253 88 239 240
254 13 241 243
255 89 241 242
256 13 243 245
257 16 243 244
258 13 245 247