LAMMPS data file via write_data, version 31 Aug 2021, timestep = 0

321 atoms
32 atom types
466 bonds
138 bond types
355 angles
66 angle types
10 dihedrals
10 dihedral types
51 impropers
17 improper types

-100 100 xlo xhi
-50 125 ylo yhi
0 200 zlo zhi

Masses

1 72
2 72
3 72
4 72
5 72
6 72
7 72
8 72
9 72
10 72
11 45
12 45
13 45
14 45
15 24
16 24
17 24
18 72
19 72
20 72
21 45
22 45
23 45
24 45
25 45
26 45
27 45
28 45
29 45
30 45
31 45
32 45

Atoms # full

1 2 10 1 -10.823607764193586 19.762883211045825 75.68726958999575 0 0 0
2 1 1 0 -9.55946633386668 19.365380660450448 78.87837256019293 0 0 0
3 2 8 0 -9.287288458596807 17.198342555131696 73.81082235774697 0 0 0
4 1 1 0 -9.000867324663298 19.81620928050345 71.41043973361647 0 0 0
5 2 8 0 -9.978806989156686 14.235278203927738 71.76461812245748 0 0 0
6 1 12 0 -11.798268499127152 13.689073993158136 74.51054615754391 0 0 0
7 1 12 0 -12.601244563902938 15.661553602719342 75.38132375788884 0 0 0
8 1 12 0 -12.495706795768172 14.422228833584262 77.02237095285471 0 0 0
9 2 8 0 -9.522952631305797 10.687794485210139 71.24379562883627 0 0 0
10 1 8 0 -7.19969269872011 9.427695169708432 69.91503191744356 0 0 0
11 2 8 0 -11.932409521455035 9.179435283098943 69.32455879823955 0 0 0
12 1 3 0 -13.65258113500746 12.103202469935614 69.88873523970591 0 0 0
13 1 10 1 -15.312874731825271 14.335330096341142 68.82255916053184 0 0 0
14 2 8 0 -14.626835357059662 6.783711485330248 70.13275240204436 0 0 0
15 1 6 0 -12.780770576319432 4.8728522099137495 70.57508898753687 0 0 0
16 2 8 0 -17.68988715742612 5.642342218838498 69.09801095328535 0 0 0
17 1 3 0 -18.804258907172382 6.237595187680047 66.25051213740275 0 0 0
18 1 10 1 -20.7572435241363 7.695485496713791 64.62247438208875 0 0 0
19 2 8 0 -17.155593019484144 2.3700941892878165 69.72683732619167 0 0 0
20 1 6 0 -19.00801045143284 1.9146974683003508 68.44248399305997 0 0 0
21 2 8 0 -17.598302694912995 -0.5183657362923197 71.8510801093027 0 0 0
22 1 2 0 -15.41776997596701 0.30304035090599246 73.17990255851089 0 0 0
23 2 8 0 -17.0492617280281 -4.088307875740222 72.2577336936668 0 0 0
24 1 9 -1 -18.70822692229072 -4.869858888390491 68.41207217724981 0 0 0
25 2 8 0 -18.6416793128059 -6.984000346027097 73.92511827834257 0 0 0
26 1 12 0 -18.64152768832001 -6.2562995002769615 76.55626849376254 0 0 0
27 1 12 0 -20.32593746680428 -4.678749291932073 76.43668990747915 0 0 0
28 1 12 0 -20.996670243885927 -6.003491800375935 77.89716066311593 0 0 0
29 2 8 0 -18.48327348932446 -9.900315205358547 75.72014341363447 0 0 0
30 1 6 0 -17.767899449199568 -11.536124761668384 73.76364984650967 0 0 0
31 2 8 0 -18.657150937793507 -12.528951287855572 78.15682947849974 0 0 0
32 1 12 0 -21.157036781481104 -12.253353802389606 79.3527043860612 0 0 0
33 1 12 0 -21.624016614511913 -13.21589425894697 81.40181290076531 0 0 0
34 1 12 0 -22.200085331033648 -11.234278447516852 81.66552412490107 0 0 0
35 2 8 0 -15.395268040152857 -12.766604118483324 78.14130227095559 0 0 0
36 2 8 0 -15.344470983495006 -10.032448623801608 79.43672243057051 0 0 0
37 1 8 0 -14.870023439767293 -8.283954736076831 76.69687414045666 0 0 0
38 2 8 0 -14.463403616255963 -9.311141766850207 82.63227194708584 0 0 0
39 1 9 -1 -13.332440208029789 -12.459692656145444 83.09804986280491 0 0 0
40 2 8 0 -13.351352009409286 -6.4934721900219134 81.65688516250962 0 0 0
41 1 6 0 -11.88753560496587 -5.7630020810110185 83.81435009940292 0 0 0
42 2 8 0 -14.550141293542197 -3.2450587596473586 80.89661255507836 0 0 0
43 1 2 0 -16.795797399819378 -3.967079065375339 79.60358690550429 0 0 0
44 2 8 0 -13.497801819385455 -0.7392643551286344 78.44923109044841 0 0 0
45 1 2 0 -10.977200710857542 -0.7120958199633467 79.36690855142521 0 0 0
46 2 8 0 -13.806555308405361 2.828452906143942 78.36577555356973 0 0 0
47 1 1 0 -16.89469630297396 2.7953231852292415 78.58597459820211 0 0 0
48 2 7 0 -12.625304582177021 5.130268586035092 76.3672532750869 0 0 0
49 1 3 0 -12.372987603848 3.595697749250396 74.8488565912994 0 0 0
50 2 8 0 -10.412066320197212 8.087290600917887 77.37705384906528 0 0 0
51 1 4 0 -12.532737151602463 9.952110451964662 78.1524905956596 0 0 0
52 2 8 0 -8.720411015118442 10.778578306075522 75.41851541010978 0 0 0
53 1 12 0 -6.909747780853451 8.173469126836755 75.49470475534237 0 0 0
54 1 12 0 -7.961791616792334 6.130138305594917 75.35685366820047 0 0 0
55 1 12 0 -6.265864305479738 5.721355825527047 76.46230716732813 0 0 0
56 2 8 0 -6.708633926158374 13.41565742930779 76.1315838795767 0 0 0
57 1 2 0 -8.193983789496855 14.99393461152457 77.61804845015152 0 0 0
58 2 8 0 -4.566742642455356 15.564338599043145 74.04868422773991 0 0 0
59 1 6 0 -5.7798275383954625 15.065113806765998 71.94278782904937 0 0 0
60 2 8 0 -4.354718433430108 18.510442480752495 76.1384492032729 0 0 0
61 1 8 0 -6.139526687138666 19.821413060916562 74.78009886722622 0 0 0
62 2 8 0 -3.020977754378311 17.92721332162443 78.68958219647125 0 0 0
63 1 4 0 -5.618278883544239 15.9641911349453 81.0934687867743 0 0 0
64 2 8 0 -1.389445984540398 19.977512948214816 81.61387279851697 0 0 0
65 1 9 -1 -1.2412261891892094 22.885881814062948 78.72819758594862 0 0 0
66 2 7 0 -1.7370724680868221 18.57636717647346 84.41343461320663 0 0 0
67 2 8 0 0.672671240118202 18.256704930550207 87.48355697384594 0 0 0
68 1 7 0 3.143343903024819 18.91152918159988 85.26320074274176 0 0 0
69 2 8 0 -2.066510184937112 17.76363405663036 89.1574345780703 0 0 0
70 1 8 0 -1.4317852902834396 18.358467747517885 92.22523463483607 0 0 0
71 2 8 0 -5.000887105914558 16.08624497612292 90.28077689376457 0 0 0
72 1 6 0 -4.199239592329064 13.705699716544267 90.56567254318686 0 0 0
73 2 8 0 -6.455780577792776 18.547075201347532 91.78037670308277 0 0 0
74 1 6 0 -4.745309192402825 18.901111476952217 93.56560664774483 0 0 0
75 2 8 0 -7.2167945762841725 19.787745717464055 88.76712358319068 0 0 0
76 1 9 -1 -3.6998744019061682 21.677766202311297 88.08529145288968 0 0 0
77 2 8 0 -9.14617553868834 17.29498950480562 88.36755435744229 0 0 0
78 1 2 0 -7.740163715666789 16.172247675803042 86.24023643599013 0 0 0
79 2 8 0 -12.156964566405634 16.11016748841849 86.5987281307989 0 0 0
80 1 11 0 -14.015015213032417 17.242319402469626 89.02010786931167 0 0 0
81 1 11 0 -16.018551465292013 16.099783596509035 88.83502837833674 0 0 0
82 1 14 0 -16.526478971799563 16.302277941928445 91.10050971531709 0 0 0
83 2 8 0 -14.512826452454005 13.243668936316729 86.5978200211316 0 0 0
84 1 2 0 -12.61802729404483 11.89171055487403 85.27818193281392 0 0 0
85 2 8 0 -17.209736390810853 12.229384846450762 84.27564333331543 0 0 0
86 1 3 0 -19.063740997163627 14.45040498834877 85.95800371352715 0 0 0
87 1 10 1 -20.49119344276704 16.999824587727836 87.02970293525061 0 0 0
88 2 8 0 -19.585475295476165 9.579825441538949 84.13351797772042 0 0 0
89 1 11 0 -17.225523883211387 7.802394612439562 82.79371613434334 0 0 0
90 1 13 0 -15.129944217239384 7.675765907779839 82.66678688349513 0 0 0
91 1 12 0 -17.10062515964465 7.067603235483281 79.968369794299 0 0 0
92 1 12 0 -14.97958639075729 6.924700459914936 79.81002416723061 0 0 0
93 2 8 0 -22.312622545559623 9.071400203190256 81.80172217761864 0 0 0
94 1 3 0 -22.594545921621194 12.373954590013701 82.35800783454611 0 0 0
95 1 10 1 -22.626613329029354 15.536047480968824 82.5911177450032 0 0 0
96 2 8 0 -25.762967512377045 7.5151486386545 82.16407653158402 0 0 0
97 1 12 0 -25.04140514914508 4.916764813049076 81.13138623396368 0 0 0
98 1 12 0 -26.659587699460474 3.4272934065114296 81.77252597143249 0 0 0
99 1 12 0 -26.269682165500736 2.895118100832155 79.80817795781252 0 0 0
100 2 8 0 -28.879629638562214 8.158337926480348 81.5301800643048 0 0 0
101 1 3 0 -29.666744124146547 5.384925842717214 80.22498421684742 0 0 0
102 1 10 1 -30.358949276443898 2.629857169442195 78.83759507436736 0 0 0
103 2 8 0 -28.69981003236359 10.889369124149871 83.48244375207402 0 0 0
104 2 8 0 -25.93778957534776 9.939187223414413 85.08612618651698 0 0 0
105 1 5 0 -27.966664690421926 7.980969826837329 86.38210087576661 0 0 0
106 1 10 1 -27.903862749476605 5.186867728553173 88.07453976109676 0 0 0
107 2 8 0 -23.540380422752932 9.590371634591937 87.52474404096836 0 0 0
108 1 9 -1 -22.93775060149585 12.834335308615811 87.27168875028043 0 0 0
109 2 8 0 -21.444302139631947 6.559096846562857 87.49595184605741 0 0 0
110 1 1 0 -22.235635157138645 5.582737123892164 85.40922863792699 0 0 0
111 2 8 0 -18.7690217419694 8.42035621627432 87.72895045666235 0 0 0
112 1 11 0 -16.47331982275547 6.454071100356279 88.38612283970706 0 0 0
113 1 11 0 -14.655582741616364 7.87007418927451 88.04661266898181 0 0 0
114 1 14 0 -13.37692000462713 6.932822279637029 89.78476699553515 0 0 0
115 2 8 0 -16.419085139055383 10.036889130520981 90.02455915577511 0 0 0
116 1 6 0 -18.262491108384758 11.671079056669747 90.47252982168384 0 0 0
117 2 8 0 -13.548405534493995 12.49225183597428 90.11451799427545 0 0 0
118 1 12 0 -11.257359938420974 10.843542720030875 90.59385955070421 0 0 0
119 1 12 0 -9.406770309713059 12.217523337880728 90.32183880169485 0 0 0
120 1 12 0 -8.982539227100842 11.14855390648038 92.05014211514343 0 0 0
121 2 8 0 -12.120054045128157 14.211802019776833 92.77174572034843 0 0 0
122 1 9 -1 -13.575171655918243 16.627674828254946 94.04935728574088 0 0 0
123 2 8 0 -9.044924815430832 15.705009733888536 93.03878680928133 0 0 0
124 2 7 0 -9.240564129830624 17.889965209193726 95.49168200263857 0 0 0
125 2 8 0 -10.258723034081825 15.006715826574357 97.44291890350915 0 0 0
126 1 1 0 -12.863097188450048 16.791768046870068 98.31968787814054 0 0 0
127 2 8 0 -9.754029117978217 12.075445593125146 96.33371248920089 0 0 0
128 1 8 0 -7.013844780966846 11.151559858908747 95.91666938674142 0 0 0
129 2 8 0 -12.802026212961223 11.20372953271906 95.1587551201848 0 0 0
130 1 3 0 -14.846873985082329 11.66615254071008 97.40963551472642 0 0 0
131 1 10 1 -17.522052877970587 11.402758072470228 99.14054315095251 0 0 0
132 2 8 0 -14.751421080160885 8.418641910446189 94.66840158649902 0 0 0
133 1 6 0 -12.934792502397542 7.309695678640188 92.86987472670046 0 0 0
134 2 8 0 -17.993972329475604 7.8057184046072825 92.8484053855256 0 0 0
135 1 6 0 -18.851904183990868 9.5328155915821 94.7725904701138 0 0 0
136 2 8 0 -20.58381404370507 5.263862714769593 93.10722877565249 0 0 0
137 1 2 0 -18.93139058382009 3.8355044513032284 91.68167997592337 0 0 0
138 2 7 0 -23.100042601787933 3.446390841061961 92.41067308385902 0 0 0
139 1 3 0 -23.849304869191517 4.784425136902831 90.85254270491158 0 0 0
140 2 8 0 -24.351232852686792 0.3035475419794329 93.38763723543663 0 0 0
141 1 6 0 -25.71344608316518 0.8674831526752405 95.44203538129315 0 0 0
142 2 8 0 -24.701594816628134 -0.5472790087500892 90.08128869440274 0 0 0
143 1 9 -1 -26.8706707106586 1.0431098962995753 89.41587686956723 0 0 0
144 2 8 0 -21.429476070641705 0.5551582709472092 89.86688030721199 0 0 0
145 1 12 0 -22.145338026148657 1.7638554617963873 87.16142419751603 0 0 0
146 1 12 0 -24.26767156780443 2.3373972714224376 86.46539967885757 0 0 0
147 1 12 0 -23.268628777967606 1.8834984547384348 84.69630686945274 0 0 0
148 2 8 0 -19.284463797490222 -0.8758779613867285 91.97084267611903 0 0 0
149 1 6 0 -20.626965779830616 -2.4842620057207174 93.04977232783129 0 0 0
150 2 8 0 -16.778012327776143 -1.5159429522003993 89.75952681503024 0 0 0
151 1 6 0 -17.6000982294761 -3.2909189765044804 88.64407404446044 0 0 0
152 2 7 0 -16.519911964630428 1.4386817395421385 88.79465525182118 0 0 0
153 2 8 0 -13.247355795674194 2.7232479524247766 87.3658215436008 0 0 0
154 1 3 0 -11.767017159229743 0.8696606930169875 89.16276667164752 0 0 0
155 1 10 1 -10.02225964313198 -1.774691550207928 89.4095913539057 0 0 0
156 2 8 0 -10.154040566018182 4.410672653637951 87.55972556035596 0 0 0
157 1 1 0 -10.845212453516012 7.056346974927527 86.44080250330437 0 0 0
158 2 8 0 -6.734586224087696 5.2054376843872685 86.61824770647365 0 0 0
159 1 9 -1 -5.876395800915546 1.7822056348320299 87.29173974983678 0 0 0
160 2 8 0 -5.129421128271378 7.738245085475446 88.23036795142002 0 0 0
161 1 2 0 -6.44231491867458 8.44356866106701 90.30878767535344 0 0 0
162 2 8 0 -2.103523337448717 7.2448529905424035 87.14068597939698 0 0 0
163 1 6 0 -1.841900946439221 5.015139593646273 87.93795123777991 0 0 0
164 2 8 0 -3.2526211879963505 8.137773019090607 84.015359124093 0 0 0
165 1 7 0 -1.9922794719611332 5.032583585297536 83.2775669181967 0 0 0
166 2 8 0 -4.616298167686846 11.031565213489122 84.10729296280522 0 0 0
167 1 1 0 -7.072099674904308 11.591132218406022 85.79339014984895 0 0 0
168 2 8 0 -2.077708551695576 13.003405762297822 83.2873492990971 0 0 0
169 1 1 0 -1.5427243477900277 14.082600165737977 86.30670872472946 0 0 0
170 2 8 0 -2.092124462612386 11.658270791429308 80.30240305307204 0 0 0
171 1 3 0 -0.16788755725277227 9.147647927891773 81.02964796995678 0 0 0
172 1 10 1 1.5059532759845435 6.6515915919823865 82.13529693457168 0 0 0
173 2 8 0 -5.462437753387743 11.62287561705343 79.69987877666995 0 0 0
174 2 8 0 -6.510980327029323 9.025526461237737 81.04231530554 0 0 0
175 1 9 -1 -6.139383148543388 6.157097201783207 80.0696236172613 0 0 0
176 2 7 0 -10.266796439698181 8.540712657992904 81.5952175609164 0 0 0
177 2 8 0 -10.805998892451681 5.381426224310621 81.56933426715813 0 0 0
178 1 6 0 -9.617590714034002 4.647206282630355 79.16309091314986 0 0 0
179 2 8 0 -13.254470840501853 2.8794830906759667 81.9857063071293 0 0 0
180 1 1 0 -16.01384780782465 3.9794148464706947 83.59150482649679 0 0 0
181 2 8 0 -13.868764077954348 0.37863887103366345 84.47038375249356 0 0 0
182 1 3 0 -10.62576518571738 -0.496519326123968 84.12044616534745 0 0 0
183 1 10 1 -7.450982458996439 -0.5939067747650686 84.35319135425908 0 0 0
184 2 8 0 -15.658172401785162 -2.877230268119897 84.4076621508526 0 0 0
185 1 4 0 -18.75743341794118 -0.7214518046306839 83.63138876467242 0 0 0
186 2 8 0 -17.652322799426667 -5.330212556802019 84.97267726834774 0 0 0
187 1 9 -1 -18.32821151549654 -6.490276886259432 87.5309433207766 0 0 0
188 2 8 0 -19.74388370644268 -7.488124604073315 83.18917269350536 0 0 0
189 1 3 0 -18.52558237124547 -10.247801953568692 82.70624124563834 0 0 0
190 1 10 1 -17.191893504513914 -13.025859907564191 83.16029852286069 0 0 0
191 2 8 0 -22.372633770437393 -7.165209572732644 84.99139326368594 0 0 0
192 1 6 0 -21.725465730432976 -8.305111366385356 87.07079159705647 0 0 0
193 2 8 0 -22.394663820693424 -3.9701154492680875 84.73490112133457 0 0 0
194 1 9 -1 -21.271216710871933 -3.415613592537591 87.856774642526 0 0 0
195 2 7 0 -21.85836798277999 -3.9225307827613793 81.49707430790706 0 0 0
196 2 8 0 -24.675683063103335 -5.617935290196096 80.48374351574058 0 0 0
197 1 2 0 -24.48211568708184 -8.019836675238858 80.73573837177896 0 0 0
198 2 8 0 -26.881374461739153 -3.791313689524239 82.24137800047936 0 0 0
199 1 6 0 -26.544007866822426 -4.577625535716857 84.30353644763404 0 0 0
200 2 8 0 -25.199987196867323 -1.0483263076176943 80.7156463437886 0 0 0
201 1 11 0 -25.408398858095858 -0.37200053632950336 83.14073356501497 0 0 0
202 1 14 0 -26.937563799450402 -0.1299926250181418 84.99742060191562 0 0 0
203 1 14 0 -25.552898637077675 -1.156077360525325 85.31734638029316 0 0 0
204 2 8 0 -25.972454195829638 -0.3382588048528934 77.87247929329166 0 0 0
205 1 6 0 -25.839539773172636 -2.6810081856415255 76.7268968671589 0 0 0
206 2 8 0 -24.62121521713732 2.333721826777184 75.82314458986806 0 0 0
207 2 8 0 -24.19908295980716 5.716784343318869 76.3416929159593 0 0 0
208 1 8 0 -24.658273165755432 6.500725916561781 73.0616045079278 0 0 0
209 2 8 0 -21.169570756004564 7.3813719211335975 77.1673465980779 0 0 0
210 1 11 0 -20.827235858439337 5.0310789184465445 79.49939068415975 0 0 0
211 1 11 0 -21.866161691216004 3.071979009401721 78.86381168799174 0 0 0
212 1 14 0 -22.1097682606008 2.3041863999359773 81.04398377941075 0 0 0
213 2 8 0 -19.89188263453339 10.13423600387623 79.21813971445921 0 0 0
214 1 6 0 -21.458815971365688 11.961679254086993 78.02345520163472 0 0 0
215 2 8 0 -16.856849422593903 11.945168494010764 78.93796669898582 0 0 0
216 1 4 0 -14.346510178378747 10.59703095198771 79.51252918187281 0 0 0
217 2 8 0 -15.780914922817239 14.218821544232744 81.49684668042431 0 0 0
218 1 9 -1 -18.379710080834137 16.91804171777843 82.5889429130851 0 0 0
219 2 8 0 -13.349871276487963 16.827058401757476 81.48556462867886 0 0 0
220 1 2 0 -11.373696078410285 14.951655163645674 81.31470128860146 0 0 0
221 2 8 0 -11.384523705879857 18.688179139242216 83.92212747974777 0 0 0
222 1 6 0 -13.715424737913121 20.00740002753364 84.40239472489556 0 0 0
223 2 8 0 -9.038069747954285 21.57000500558221 83.84381081849916 0 0 0
224 1 9 -1 -5.538502903373693 20.409876431922136 82.75443779107023 0 0 0
225 2 8 0 -9.782975006244325 23.66855202834858 85.83905931164739 0 0 0
226 1 1 0 -6.405307962930749 24.729348920919456 86.73123378854378 0 0 0
227 2 8 0 -11.43407060884933 25.497526995601014 83.30533993487688 0 0 0
228 1 6 0 -11.417243866977344 27.889264271532774 84.23813662423449 0 0 0
229 2 8 0 -11.163333859559696 23.358969359690768 81.38264056927807 0 0 0
230 1 5 0 -8.650448869441963 24.19665628034533 79.24818755986202 0 0 0
231 1 10 1 -5.804423198566305 22.563348866664263 78.73055373839046 0 0 0
232 2 8 0 -13.37147439037939 21.593842986032193 78.9669741433893 0 0 0
233 1 9 -1 -16.814831849532062 22.406068914801928 80.43171932571005 0 0 0
234 2 8 0 -14.732854629486843 18.19414798355671 78.13515821741112 0 0 0
235 2 8 0 -16.32494332647849 15.856125623572202 75.79930611911296 0 0 0
236 1 9 -1 -20.010840930274394 16.404216585134897 76.8605578103648 0 0 0
237 2 8 0 -17.369132719903032 12.320297155721411 75.26322258402199 0 0 0
238 1 6 0 -15.353811694631245 11.804206569616657 73.67192384650238 0 0 0
239 2 8 0 -18.733430013416665 9.603507883393055 73.13628841845106 0 0 0
240 1 1 0 -21.63433912021066 10.862538716366789 73.50093580393617 0 0 0
241 2 8 0 -19.64603684293524 6.15476412284564 74.011339987675 0 0 0
242 1 1 0 -16.846271730389496 6.0040742736636386 74.55347270567421 0 0 0
243 2 8 0 -20.55808479107125 2.9893406771751976 72.73475746002521 0 0 0
244 1 9 -1 -23.928310139654883 2.6792812489084 70.60984704998265 0 0 0
245 2 8 0 -21.87283488434522 0.3066921266345206 74.47223521427651 0 0 0
246 1 1 0 -20.28057103501569 -0.6815088169632535 77.14025971363756 0 0 0
247 2 8 0 -21.57169286200526 -3.1366923149039483 73.26919029817745 0 0 0
248 1 3 0 -22.203820668280848 -1.6649184955542413 70.37117438013799 0 0 0
249 1 10 1 -22.536622664105806 -0.21546446470812963 67.59359884668461 0 0 0
250 2 8 0 -23.406543604668144 -6.133109551094899 72.91747095152839 0 0 0
251 1 11 0 -23.600989164807398 -7.820405763902821 75.25092813227675 0 0 0
252 1 11 0 -24.863354498165855 -9.701817525597514 74.72507306850761 0 0 0
253 1 14 0 -23.417712329755147 -11.192526478354276 75.80618617040011 0 0 0
254 2 8 0 -21.708755875447974 -8.94326593748921 71.54738412562399 0 0 0
255 1 5 0 -21.699248359225102 -8.119124399768333 68.57536455419815 0 0 0
256 1 10 1 -23.53224540514983 -8.675614445506564 65.34424390361488 0 0 0
257 2 9 -1 -21.80232845141053 -12.181048642965203 70.49410005893155 0 0 0
258 1 2 0 -24.104305502785614 -13.218869779910912 71.21293866574891 0 0 0
259 4 22 0 -5.8091538239540235 57.77691434335346 103.42514403138813 0 0 0
260 4 21 0 -5.167625445626566 57.73638377743569 101.64894060468642 0 0 0
261 3 27 0 -6.736823789055762 55.18666710299664 101.20943925193941 0 0 0
262 3 23 0 -5.992727524439946 52.99693095227267 101.08423406355905 0 0 0
263 3 24 0 -8.512203365496708 52.41756873989721 100.3863222401868 0 0 0
264 3 28 0 -8.311107523826436 55.31755299849903 100.84025148833523 0 0 0
265 4 20 -1 -2.8928157497651945 58.73703258425833 100.6978660476618 0 0 0
266 4 22 0 -2.069962463180474 55.22256682578928 100.85388816566217 0 0 0
267 4 21 0 -1.4980528054019295 55.114817105751875 99.05683242329593 0 0 0
268 3 27 0 -4.099730266870331 54.881947880316474 98.52349734069546 0 0 0
269 3 29 0 -4.621523478891035 52.772376901399305 98.06935845357002 0 0 0
270 3 30 0 -6.672015528188091 55.25709172046723 97.77836940966317 0 0 0
271 4 20 -1 0.9919204351373274 54.896871433214564 98.1265459377332 0 0 0
272 4 22 0 -0.15297187017782576 51.491005183321754 97.75466329889234 0 0 0
273 4 21 0 0.3221408566841184 51.377121913923624 95.93128772109029 0 0 0
274 3 27 0 -2.589621454319083 51.78103253181233 95.21974260166496 0 0 0
275 3 23 0 -4.1640263853017 50.2539064498684 94.48889717125974 0 0 0
276 3 24 0 -5.733464451561442 52.396595987203234 94.13078307942486 0 0 0
277 3 28 0 -3.147000714168552 53.301299257678785 95.16761350314056 0 0 0
278 4 20 -1 2.3535390137065946 50.02749353624298 94.84256150674396 0 0 0
279 4 22 0 -0.38885207948641565 47.81543767941888 94.07594558056851 0 0 0
280 4 21 0 7.105427357601002e-15 47.725 92.23 0 0 0
281 3 27 0 -1.3379105717753603 50.041650947856475 92.1158786272104 0 0 0
282 3 31 0 -3.370156666120053 49.78241340572449 91.3106012161463 0 0 0
283 3 32 0 -2.533846580940338 52.413815175272326 91.75163428593498 0 0 0
284 4 20 -1 1.0454109108175835 45.70475583607808 90.85456205313255 0 0 0
285 4 22 0 -2.433648369400757 45.37212540788778 89.94659535607337 0 0 0
286 4 21 0 -2.1000388387007938 45.37389433343095 88.08855834031492 0 0 0
287 3 27 0 -2.027157199768297 48.02419268422341 88.36551847913142 0 0 0
288 3 31 0 -3.878615087685688 48.9777337491227 87.64616937972333 0 0 0
289 3 32 0 -1.7938868152966094 50.699268779587875 88.39638612785875 0 0 0
290 4 20 -1 -2.2343099057940776 43.320771313686244 86.39363735503683 0 0 0
291 4 22 0 -5.345193630910291 44.983434503827546 85.64613915105485 0 0 0
292 4 21 0 -5.027930651019894 45.08585637498818 83.78676991341027 0 0 0
293 3 27 0 -4.252260164266005 47.99247640459928 84.14731852239746 0 0 0
294 3 23 0 -5.434960328656679 49.909704091614174 83.62764716731449 0 0 0
295 3 24 0 -3.1843128311063076 51.199804366764596 84.2747384451317 0 0 0
296 3 28 0 -2.738692265195752 48.32002134486066 84.6177720557174 0 0 0
297 4 20 -1 -6.167395639026537 43.672884759232325 81.84007251674707 0 0 0
298 4 22 0 -7.930611218409769 46.80171677606823 81.50127902353503 0 0 0
299 4 21 0 -7.562439076916306 46.99210513481726 79.65834615794255 0 0 0
300 3 27 0 -5.403248226093684 48.9834619123247 80.36438656358452 0 0 0
301 3 25 0 -5.503244494695682 51.94023821737748 80.09629212473112 0 0 0
302 3 26 0 -2.7822129942844995 51.12875342724193 80.87858363634857 0 0 0
303 3 28 0 -3.9253235720122426 48.432430584165886 80.7983257208932 0 0 0
304 4 20 -1 -9.22971247350086 46.68021626558483 77.60285965730813 0 0 0
305 4 22 0 -9.085251895915965 50.282848183649065 77.79358040727693 0 0 0
306 4 21 0 -8.629046850944778 50.50972016153039 75.9755303357456 0 0 0
307 3 27 0 -6.148046129376809 49.97382875218955 76.80508191158279 0 0 0
308 3 31 0 -4.920517280764916 51.80438296075936 76.94380543270627 0 0 0
309 3 32 0 -3.5961664458325444 49.376290460695486 77.36173087719071 0 0 0
310 4 20 -1 -10.163782818551802 51.41253722540818 73.99300496165719 0 0 0
311 4 22 0 -8.164914636937434 54.341096800494356 74.66372458094735 0 0 0
312 4 21 0 -7.612208037066679 54.5641141262178 72.87160887963606 0 0 0
313 3 27 0 -5.798343184645251 52.70487075089333 73.48054924491186 0 0 0
314 3 29 0 -3.805494675355856 53.624855078132654 73.79801366285037 0 0 0
315 3 30 0 -4.332915459465923 50.43873243250846 73.74463011173775 0 0 0
316 4 20 -1 -8.394530869274858 56.40687684621491 71.12098140812915 0 0 0
317 4 22 0 -5.167625445626388 57.736383777435684 72.07428760587678 0 0 0
318 4 21 0 -4.539489857938186 57.8963881723213 70.30060660944679 0 0 0
319 3 27 0 -3.984179613576675 55.29741642464883 70.54713528385908 0 0 0
320 3 29 0 -1.8150635575862104 54.99035993187276 70.87462855995568 0 0 0
321 3 30 0 -3.9324978592755286 52.597748688142055 70.416279986921 0 0 0

Velocities

1 0 0 0
2 0 0 0
3 0 0 0
4 0 0 0
5 0 0 0
6 0 0 0
7 0 0 0
8 0 0 0
9 0 0 0
10 0 0 0
11 0 0 0
12 0 0 0
13 0 0 0
14 0 0 0
15 0 0 0
16 0 0 0
17 0 0 0
18 0 0 0
19 0 0 0
20 0 0 0
21 0 0 0
22 0 0 0
23 0 0 0
24 0 0 0
25 0 0 0
26 0 0 0
27 0 0 0
28 0 0 0
29 0 0 0
30 0 0 0
31 0 0 0
32 0 0 0
33 0 0 0
34 0 0 0
35 0 0 0
36 0 0 0
37 0 0 0
38 0 0 0
39 0 0 0
40 0 0 0
41 0 0 0
42 0 0 0
43 0 0 0
44 0 0 0
45 0 0 0
46 0 0 0
47 0 0 0
48 0 0 0
49 0 0 0
50 0 0 0
51 0 0 0
52 0 0 0
53 0 0 0
54 0 0 0
55 0 0 0
56 0 0 0
57 0 0 0
58 0 0 0
59 0 0 0
60 0 0 0
61 0 0 0
62 0 0 0
63 0 0 0
64 0 0 0
65 0 0 0
66 0 0 0
67 0 0 0
68 0 0 0
69 0 0 0
70 0 0 0
71 0 0 0
72 0 0 0
73 0 0 0
74 0 0 0
75 0 0 0
76 0 0 0
77 0 0 0
78 0 0 0
79 0 0 0
80 0 0 0
81 0 0 0
82 0 0 0
83 0 0 0
84 0 0 0
85 0 0 0
86 0 0 0
87 0 0 0
88 0 0 0
89 0 0 0
90 0 0 0
91 0 0 0
92 0 0 0
93 0 0 0
94 0 0 0
95 0 0 0
96 0 0 0
97 0 0 0
98 0 0 0
99 0 0 0
100 0 0 0
101 0 0 0
102 0 0 0
103 0 0 0
104 0 0 0
105 0 0 0
106 0 0 0
107 0 0 0
108 0 0 0
109 0 0 0
110 0 0 0
111 0 0 0
112 0 0 0
113 0 0 0
114 0 0 0
115 0 0 0
116 0 0 0
117 0 0 0
118 0 0 0
119 0 0 0
120 0 0 0
121 0 0 0
122 0 0 0
123 0 0 0
124 0 0 0
125 0 0 0
126 0 0 0
127 0 0 0
128 0 0 0
129 0 0 0
130 0 0 0
131 0 0 0
132 0 0 0
133 0 0 0
134 0 0 0
135 0 0 0
136 0 0 0
137 0 0 0
138 0 0 0
139 0 0 0
140 0 0 0
141 0 0 0
142 0 0 0
143 0 0 0
144 0 0 0
145 0 0 0
146 0 0 0
147 0 0 0
148 0 0 0
149 0 0 0
150 0 0 0
151 0 0 0
152 0 0 0
153 0 0 0
154 0 0 0
155 0 0 0
156 0 0 0
157 0 0 0
158 0 0 0
159 0 0 0
160 0 0 0
161 0 0 0
162 0 0 0
163 0 0 0
164 0 0 0
165 0 0 0
166 0 0 0
167 0 0 0
168 0 0 0
169 0 0 0
170 0 0 0
171 0 0 0
172 0 0 0
173 0 0 0
174 0 0 0
175 0 0 0
176 0 0 0
177 0 0 0
178 0 0 0
179 0 0 0
180 0 0 0
181 0 0 0
182 0 0 0
183 0 0 0
184 0 0 0
185 0 0 0
186 0 0 0
187 0 0 0
188 0 0 0
189 0 0 0
190 0 0 0
191 0 0 0
192 0 0 0
193 0 0 0
194 0 0 0
195 0 0 0
196 0 0 0
197 0 0 0
198 0 0 0
199 0 0 0
200 0 0 0
201 0 0 0
202 0 0 0
203 0 0 0
204 0 0 0
205 0 0 0
206 0 0 0
207 0 0 0
208 0 0 0
209 0 0 0
210 0 0 0
211 0 0 0
212 0 0 0
213 0 0 0
214 0 0 0
215 0 0 0
216 0 0 0
217 0 0 0
218 0 0 0
219 0 0 0
220 0 0 0
221 0 0 0
222 0 0 0
223 0 0 0
224 0 0 0
225 0 0 0
226 0 0 0
227 0 0 0
228 0 0 0
229 0 0 0
230 0 0 0
231 0 0 0
232 0 0 0
233 0 0 0
234 0 0 0
235 0 0 0
236 0 0 0
237 0 0 0
238 0 0 0
239 0 0 0
240 0 0 0
241 0 0 0
242 0 0 0
243 0 0 0
244 0 0 0
245 0 0 0
246 0 0 0
247 0 0 0
248 0 0 0
249 0 0 0
250 0 0 0
251 0 0 0
252 0 0 0
253 0 0 0
254 0 0 0
255 0 0 0
256 0 0 0
257 0 0 0
258 0 0 0
259 0 0 0
260 0 0 0
261 0 0 0
262 0 0 0
263 0 0 0
264 0 0 0
265 0 0 0
266 0 0 0
267 0 0 0
268 0 0 0
269 0 0 0
270 0 0 0
271 0 0 0
272 0 0 0
273 0 0 0
274 0 0 0
275 0 0 0
276 0 0 0
277 0 0 0
278 0 0 0
279 0 0 0
280 0 0 0
281 0 0 0
282 0 0 0
283 0 0 0
284 0 0 0
285 0 0 0
286 0 0 0
287 0 0 0
288 0 0 0
289 0 0 0
290 0 0 0
291 0 0 0
292 0 0 0
293 0 0 0
294 0 0 0
295 0 0 0
296 0 0 0
297 0 0 0
298 0 0 0
299 0 0 0
300 0 0 0
301 0 0 0
302 0 0 0
303 0 0 0
304 0 0 0
305 0 0 0
306 0 0 0
307 0 0 0
308 0 0 0
309 0 0 0
310 0 0 0
311 0 0 0
312 0 0 0
313 0 0 0
314 0 0 0
315 0 0 0
316 0 0 0
317 0 0 0
318 0 0 0
319 0 0 0
320 0 0 0
321 0 0 0

Bonds

1 18 1 3
2 2 1 2
3 13 3 5
4 1 3 4
5 13 5 9
6 22 5 6
7 23 6 7
8 24 6 8
9 25 7 8
10 13 9 11
11 14 9 10
12 13 11 14
13 4 11 12
14 5 12 13
15 13 14 16
16 26 14 15
17 13 16 19
18 4 16 17
19 5 17 18
20 13 19 21
21 10 19 20
22 13 21 23
23 27 21 22
24 13 23 25
25 16 23 24
26 13 25 29
27 22 25 26
28 28 26 27
29 29 26 28
30 30 27 28
31 13 29 31
32 31 29 30
33 13 31 35
34 22 31 32
35 32 32 33
36 33 32 34
37 34 33 34
38 13 35 36
39 13 36 38
40 14 36 37
41 13 38 40
42 17 38 39
43 13 40 42
44 35 40 41
45 13 42 44
46 36 42 43
47 13 44 46
48 37 44 45
49 11 46 48
50 38 46 47
51 11 48 50
52 3 48 49
53 13 50 52
54 7 50 51
55 13 52 56
56 22 52 53
57 39 53 54
58 40 53 55
59 41 54 55
60 13 56 58
61 42 56 57
62 13 58 60
63 43 58 59
64 13 60 62
65 14 60 61
66 13 62 64
67 6 62 63
68 11 64 66
69 16 64 65
70 11 66 67
71 13 67 69
72 12 67 68
73 13 69 71
74 14 69 70
75 13 71 73
76 44 71 72
77 13 73 75
78 45 73 74
79 13 75 77
80 16 75 76
81 13 77 79
82 46 77 78
83 13 79 83
84 20 79 80
85 47 80 81
86 48 80 82
87 49 81 82
88 13 83 85
89 50 83 84
90 13 85 88
91 4 85 86
92 5 86 87
93 13 88 93
94 19 88 89
95 51 89 90
96 52 89 91
97 53 90 91
98 54 90 92
99 55 91 92
100 13 93 96
101 4 93 94
102 5 94 95
103 13 96 100
104 22 96 97
105 56 97 98
106 57 97 99
107 58 98 99
108 13 100 103
109 4 100 101
110 5 101 102
111 13 103 104
112 13 104 107
113 8 104 105
114 9 105 106
115 13 107 109
116 17 107 108
117 13 109 111
118 59 109 110
119 13 111 115
120 20 111 112
121 60 112 113
122 61 112 114
123 62 113 114
124 13 115 117
125 63 115 116
126 13 117 121
127 22 117 118
128 64 118 119
129 65 118 120
130 66 119 120
131 13 121 123
132 17 121 122
133 11 123 124
134 11 124 125
135 13 125 127
136 1 125 126
137 13 127 129
138 14 127 128
139 13 129 132
140 4 129 130
141 5 130 131
142 13 132 134
143 10 132 133
144 13 134 136
145 67 134 135
146 11 136 138
147 68 136 137
148 11 138 140
149 3 138 139
150 13 140 142
151 69 140 141
152 13 142 144
153 17 142 143
154 13 144 148
155 22 144 145
156 70 145 146
157 71 145 147
158 72 146 147
159 13 148 150
160 10 148 149
161 11 150 152
162 10 150 151
163 11 152 153
164 13 153 156
165 4 153 154
166 5 154 155
167 13 156 158
168 73 156 157
169 13 158 160
170 16 158 159
171 13 160 162
172 74 160 161
173 13 162 164
174 10 162 163
175 13 164 166
176 12 164 165
177 13 166 168
178 1 166 167
179 13 168 170
180 1 168 169
181 13 170 173
182 4 170 171
183 5 171 172
184 13 173 174
185 11 174 176
186 17 174 175
187 11 176 177
188 13 177 179
189 10 177 178
190 13 179 181
191 1 179 180
192 13 181 184
193 4 181 182
194 5 182 183
195 13 184 186
196 6 184 185
197 13 186 188
198 17 186 187
199 13 188 191
200 4 188 189
201 5 189 190
202 13 191 193
203 10 191 192
204 11 193 195
205 17 193 194
206 11 195 196
207 13 196 198
208 75 196 197
209 13 198 200
210 10 198 199
211 13 200 204
212 21 200 201
213 76 201 202
214 77 201 203
215 78 202 203
216 13 204 206
217 79 204 205
218 13 206 207
219 13 207 209
220 14 207 208
221 13 209 213
222 20 209 210
223 80 210 211
224 81 210 212
225 82 211 212
226 13 213 215
227 83 213 214
228 13 215 217
229 7 215 216
230 13 217 219
231 16 217 218
232 13 219 221
233 84 219 220
234 13 221 223
235 85 221 222
236 13 223 225
237 16 223 224
238 13 225 227
239 1 225 226
240 13 227 229
241 86 227 228
242 13 229 232
243 8 229 230
244 9 230 231