LAMMPS data file

321 atoms
466 bonds
355 angles
10 dihedrals
51 impropers

32 atom types
138 bond types
66 angle types
10 dihedral types
17 improper types

-100.0 100.0 xlo xhi
-50.0 125.0 ylo yhi
 0.0 200.0 zlo zhi

Masses

1 72.0 # C1 
2 72.0 # C2 
3 72.0 # C3 
4 72.0 # C5 
5 72.0 # N0 
6 72.0 # P1 
7 72.0 # P4 
8 72.0 # P5 
9 72.0 # Qa 
10 72.0 # Qd 
11 45.0 # SC4 
12 45.0 # SC5 
13 45.0 # SNd 
14 45.0 # SP1 
15 24.0000 # POL 
16 24.0000 # WP 
17 24.0000 # WM 
18 72.0 # Qa 
19 72.0 # Qd 
20 72.0000 # Q0 
21 45.0000 # SC2 
22 45.0000 # SN0 
23 45.0000 # TA2 
24 45.0000 # TA3 
25 45.0000 # TG2 
26 45.0000 # TG3 
27 45.0000 # TN0 
28 45.0000 # TNa 
29 45.0000 # TT2 
30 45.0000 # TT3 
31 45.0000 # TY2 
32 45.0000 # TY3

Atoms

1 2 10 1.0000 13.74 23.29 91.1 
2 1 1 0.0000 13.78 26.53 92.3 
3 2 8 0.0000 11.61 21.56 93.32 
4 1 1 0.0000 14.14 19.07 93.01 
5 2 8 0.0000 8.51 19.61 93.5 
6 1 12 0.0000 7.59 22.32 91.78 
7 1 12 0.0000 9.31 23.09 90.46 
8 1 12 0.0000 8.19 24.78 90.82 
9 2 8 0.0000 5.19 19.24 94.88 
10 1 8 0.0000 4.54 18.03 97.5 
11 2 8 0.0000 3.05 17.31 93.02 
12 1 3 0.0000 5.44 17.71 90.58 
13 1 10 1.0000 7.13 16.51 88.44 
14 2 8 0.0000 0.0600000000000023 18.13 91.01 
15 1 6 0.0000 -1.28999999999999 18.7 93.27 
16 2 8 0.0000 -1.87 17.05 88.39 
17 1 3 0.0000 -1.67 14.15 87.27 
18 1 10 1.0000 -0.82 12.41 85.07 
19 2 8 0.0000 -4.87 17.82 89.73 
20 1 6 0.0000 -5.83 16.5 88.11 
21 2 8 0.0000 -7.71 20.04 89.97 
22 1 2 0.0000 -6.31 21.4 91.81 
23 2 8 0.0000 -11 20.6 91.41 
24 1 9 -1.0000 -12.3 16.74 90.16 
25 2 8 0.0000 -14.16 22.33 90.56 
26 1 12 0.0000 -13.38 24.93 90.27 
27 1 12 0.0000 -12.3 24.7 88.24 
28 1 12 0.0000 -13.71 26.19 87.88 
29 2 8 0.0000 -16.88 24.24 91.4 
30 1 6 0.0000 -18.33 22.37 92.59 
31 2 8 0.0000 -19.39 26.77 91.82 
32 1 12 0.0000 -19.74 27.88 89.29 
33 1 12 0.0000 -20.73 29.95 89.01 
34 1 12 0.0000 -18.96 30.12 87.93 
35 2 8 0.0000 -18.77 26.86 95.03 
36 2 8 0.0000 -16.08 28.05 94.32 
37 1 8 0.0000 -14.35 25.26 94.43 
38 2 8 0.0000 -15.06 31.24 94.86 
39 1 9 -1.0000 -17.79 31.86 96.75 
40 2 8 0.0000 -12.08 30.19 95.24 
41 1 6 0.0000 -10.93 32.36 96.38 
42 2 8 0.0000 -9.28 29.27 93.27 
43 1 2 0.0000 -10.6 27.94 91.34 
44 2 8 0.0000 -6.66 26.76 93.73 
45 1 2 0.0000 -5.95 27.75 96.12 
46 2 8 0.0000 -3.3 26.53 92.51 
47 1 1 0.0000 -4.13 26.66 89.53 
48 2 7 0.0000 -0.829999999999998 24.48 93.13 
49 1 3 0.0000 -2.29 23.03 93.83 
50 2 8 0.0000 2.63 25.44 94.46 
51 1 4 0.0000 3.9 26.08 91.9 
52 2 8 0.0000 5.61 23.43 95.47 
53 1 12 0.0000 3.57 23.66 97.89 
54 1 12 0.0000 1.31999999999999 23.57 97.41 
55 1 12 0.0000 1.4 24.74 99.11 
56 2 8 0.0000 8.7 24.1 96.7 
57 1 2 0.0000 9.88 25.48 94.8 
58 2 8 0.0000 11.27 22 98.29 
59 1 6 0.0000 10.41 19.88 97.33 
60 2 8 0.0000 14.23 23.98 97.65 
61 1 8 0.0000 14.99 22.52 95.64 
62 2 8 0.0000 14.09 26.59 98.99 
63 1 4 0.0000 11.59 28.99 96.9 
64 2 8 0.0000 16.58 29.48 99.92 
65 1 9 -1.0000 19.34 26.49 99.42 
66 2 7 0.0000 15.22 32.32 99.84 
67 2 8 0.0000 15.63 35.47 102.13 
68 1 7 0.0000 16.84 33.3 104.43 
69 2 8 0.0000 14.49 37.08 99.55 
70 1 8 0.0000 15.32 40.14 99.89 
71 2 8 0.0000 12.14 38.18 97.11 
72 1 6 0.0000 10.06 38.58 98.49 
73 2 8 0.0000 14.18 39.54 95.01 
74 1 6 0.0000 15.02 41.36 96.5 
75 2 8 0.0000 15.09 36.46 94.07 
76 1 9 -1.0000 17.81 35.81 97 
77 2 8 0.0000 12.17 36.1 92.87 
78 1 2 0.0000 11.39 34.06 94.6 
79 2 8 0.0000 10.19 34.29 90.34 
80 1 11 0.0000 10.87 36.61 88.16 
81 1 11 0.0000 9.24 36.41 86.53 
82 1 14 0.0000 9.37 38.65 85.9 
83 2 8 0.0000 6.81 34.33 88.81 
84 1 2 0.0000 5.96 33.12 91.04 
85 2 8 0.0000 5.06 31.97 86.56 
86 1 3 0.0000 6.77 33.51 84.13 
87 1 10 1.0000 8.89 34.44 82.05 
88 2 8 0.0000 1.88 31.86 84.96 
89 1 11 0.0000 0.739999999999995 30.66 87.75 
90 1 13 0.0000 1.16 30.6 89.81 
91 1 12 0.0000 -0.019999999999996 27.87 88.17 
92 1 12 0.0000 0.390000000000001 27.78 90.26 
93 2 8 0.0000 0.609999999999999 29.47 82.55 
94 1 3 0.0000 3.73999999999999 29.89 81.4 
95 1 10 1.0000 6.79000000000001 30 80.54 
96 2 8 0.0000 -1.78 29.79 79.61 
97 1 12 0.0000 -4.13 28.88 81.02 
98 1 12 0.0000 -5.97 29.53 79.82 
99 1 12 0.0000 -6.44 27.6 80.41 
100 2 8 0.0000 -1.98999999999999 29.04 76.46 
101 1 3 0.0000 -4.91 27.82 76.47 
102 1 10 1.0000 -7.79 26.52 76.57 
103 2 8 0.0000 0.75 30.89 75.85 
104 2 8 0.0000 0.599999999999994 32.61 78.7 
105 1 5 0.0000 -1.78 33.92 77.2 
106 1 10 1.0000 -4.41 35.72 77.92 
107 2 8 0.0000 0.960000000000001 35.13 81.01 
108 1 9 -1.0000 4.24 34.77 80.76 
109 2 8 0.0000 -1.42 35.28 83.82 
110 1 1 0.0000 -2.63 33.21 83.39 
111 2 8 0.0000 1.08 35.52 85.91 
112 1 11 0.0000 -0.199999999999996 36.32 88.61 
113 1 11 0.0000 1.63 35.98 90.01 
114 1 14 0.0000 1.11 37.79 91.42 
115 2 8 0.0000 3.32 37.82 87.67 
116 1 6 0.0000 4.42999999999999 38.15 85.45 
117 2 8 0.0000 6.44 37.9 89.8 
118 1 12 0.0000 5.46 38.51 92.42 
119 1 12 0.0000 7.26 38.24 93.86 
120 1 12 0.0000 6.39 40.02 94.48 
121 2 8 0.0000 8.55 40.53 90.63 
122 1 9 -1.0000 10.54 41.67 88.55 
123 2 8 0.0000 10.8 40.83 93.2 
124 2 7 0.0000 12.93 43.19 92.35 
125 2 8 0.0000 9.94 45.22 92.04 
126 1 1 0.0000 11.01 45.95 89.03 
127 2 8 0.0000 7.21 44.24 93.33 
128 1 8 0.0000 7.02 43.94 96.23 
129 2 8 0.0000 5.54000000000001 43.01 90.66 
130 1 3 0.0000 5.52 45.18 88.48 
131 1 10 1.0000 4.62 46.84 85.9 
132 2 8 0.0000 2.33 42.57 89.52 
133 1 6 0.0000 1.68 40.87 91.63 
134 2 8 0.0000 0.839999999999996 40.68 86.62 
135 1 6 0.0000 2.34 42.51 85.27 
136 2 8 0.0000 -2.28 40.96 84.77 
137 1 2 0.0000 -3.27 39.64 86.79 
138 2 7 0.0000 -4.71 40.26 82.84 
139 1 3 0.0000 -3.66 38.63 81.83 
140 2 8 0.0000 -8.04000000000001 41.32 82.41 
141 1 6 0.0000 -7.79 43.31 80.87 
142 2 8 0.0000 -9.05 38.04 82.42 
143 1 9 -1.0000 -8.09999999999999 37.25 79.94 
144 2 8 0.0000 -7.14 37.88 85.3 
145 1 12 0.0000 -6.23999999999999 35.11 84.4 
146 1 12 0.0000 -6.26000000000001 34.33 82.23 
147 1 12 0.0000 -6.49 32.61 83.38 
148 2 8 0.0000 -7.9 40.1 87.66 
149 1 6 0.0000 -9.77 41.2 86.74 
150 2 8 0.0000 -7.93 37.99 90.33 
151 1 6 0.0000 -9.89 36.92 90.04 
152 2 7 0.0000 -5.03999999999999 36.92 89.85 
153 2 8 0.0000 -2.99 35.54 92.73 
154 1 3 0.0000 -4.34 37.45 94.57 
155 1 10 1.0000 -6.43 37.85 96.93 
156 2 8 0.0000 -0.549999999999997 35.76 95.27 
157 1 1 0.0000 1.79000000000001 34.52 93.96 
158 2 8 0.0000 1.08 34.89 98.4 
159 1 9 -1.0000 -1.98 35.72 100.09 
160 2 8 0.0000 3.99 36.45 99.23 
161 1 2 0.0000 4.39 38.46 97.7 
162 2 8 0.0000 4.27 35.47 102.32 
163 1 6 0.0000 2.21 36.36 103.12 
164 2 8 0.0000 4.74 32.28 101.1 
165 1 7 0.0000 2.05 31.7 103.15 
166 2 8 0.0000 7.18 32.22 99.03 
167 1 1 0.0000 7.13 33.81 96.45 
168 2 8 0.0000 9.72 31.4 101 
169 1 1 0.0000 10.99 34.39 101.12 
170 2 8 0.0000 8.33 28.47 101.45 
171 1 3 0.0000 6.43 29.35 103.93 
172 1 10 1.0000 4.48999999999999 30.6 106.15 
173 2 8 0.0000 7.40000000000001 27.77 98.23 
174 2 8 0.0000 4.66 29.18 97.84 
175 1 9 -1.0000 1.95999999999999 28.33 98.98 
176 2 7 0.0000 3.23 29.64 94.32 
177 2 8 0.0000 0.039999999999992 29.72 94.62 
178 1 6 0.0000 -0.43 27.38 96.05 
179 2 8 0.0000 -3 30.16 92.89 
180 1 1 0.0000 -2.61 31.64 89.88 
181 2 8 0.0000 -5.5 32.72 92.85 
182 1 3 0.0000 -5.51000000000001 32.5 96.22 
183 1 10 1.0000 -4.77 32.83 99.3 
184 2 8 0.0000 -9.11 32.73 91.97 
185 1 4 0.0000 -7.86 31.78 88.45 
186 2 8 0.0000 -11.98 33.33 90.66 
187 1 9 -1.0000 -13.2 35.91 90.21 
188 2 8 0.0000 -14.66 31.57 89.27 
189 1 3 0.0000 -17.02 31.23 91.18 
190 1 10 1.0000 -19.34 31.83 93.17 
191 2 8 0.0000 -14.98 33.28 86.58 
192 1 6 0.0000 -15.85 35.42 87.42 
193 2 8 0.0000 -11.91 32.9 85.74 
194 1 9 -1.0000 -10.99 36.03 86.56 
195 2 7 0.0000 -11.82 29.68 86.37 
196 2 8 0.0000 -14.22 28.65 84.13 
197 1 2 0.0000 -16.48 29 84.93 
198 2 8 0.0000 -12.98 30.27 81.46 
199 1 6 0.0000 -13.59 32.37 81.91 
200 2 8 0.0000 -9.94 28.69 82.43 
201 1 11 0.0000 -9.27 31.08 81.96 
202 1 14 0.0000 -9.38 32.88 80.35 
203 1 14 0.0000 -10 33.28 81.94 
204 2 8 0.0000 -9.54 25.8 81.61 
205 1 6 0.0000 -11.8 24.75 82.39 
206 2 8 0.0000 -6.67 23.69 82.3 
207 2 8 0.0000 -3.28 24.09 81.81 
208 1 8 0.0000 -2.74 20.77 81.29 
209 2 8 0.0000 -0.859999999999999 24.94 84.27 
210 1 11 0.0000 -2.97 27.37 85.12 
211 1 11 0.0000 -5.15 26.78 84.65 
212 1 14 0.0000 -5.89 28.98 84.53 
213 2 8 0.0000 2.19 26.92 84.71 
214 1 6 0.0000 3.51 25.61 82.77 
215 2 8 0.0000 4.72 26.66 87.18 
216 1 4 0.0000 4.09 27.36 89.93 
217 2 8 0.0000 7.27 29.16 87.53 
218 1 9 -1.0000 9.23 30.07 84.28 
219 2 8 0.0000 10.42 29.12 89.2 
220 1 2 0.0000 9.12 29.08 91.6 
221 2 8 0.0000 12.8 31.54 90.52 
222 1 6 0.0000 13.48 31.9 87.91 
223 2 8 0.0000 16.19 31.42 92.04 
224 1 9 -1.0000 15.95 30.48 95.76 
225 2 8 0.0000 18.08 33.31 90.7 
226 1 1 0.0000 20.01 34.26 93.65 
227 2 8 0.0000 19.34 30.66 88.73 
228 1 6 0.0000 21.68 31.5 88.09 
229 2 8 0.0000 17.29 28.83 89.62 
230 1 5 0.0000 18.69 26.74 91.91 
231 1 10 1.0000 17.84 26.37 95.1 
232 2 8 0.0000 14.94 26.42 88.04 
233 1 9 -1.0000 14.87 27.75 84.45 
234 2 8 0.0000 11.28 25.68 87.64 
235 2 8 0.0000 8.54 23.39 86.8 
236 1 9 -1.0000 8.14 24.32 83.06 
237 2 8 0.0000 4.84 22.96 86.73 
238 1 6 0.0000 4.82 21.45 88.87 
239 2 8 0.0000 1.8 20.9 86.2 
240 1 1 0.0000 2.27 21.13 83.06 
241 2 8 0.0000 -1.74 21.88 86.18 
242 1 1 0.0000 -1.14 22.51 88.9 
243 2 8 0.0000 -5.06999999999999 20.7 86.17 
244 1 9 -1.0000 -6.31 18.49 83.08 
245 2 8 0.0000 -7.95 22.5 85.53 
246 1 1 0.0000 -8.41 25.25 87.22 
247 2 8 0.0000 -11.23 21.44 86.76 
248 1 3 0.0000 -10.06 18.47 85.88 
249 1 10 1.0000 -8.83 15.63 85.29 
250 2 8 0.0000 -14.61 21.15 85.78 
251 1 11 0.0000 -16.22 23.54 85.94 
252 1 11 0.0000 -18.38 23.05 85.23 
253 1 14 0.0000 -19.41 24.23 86.97 
254 2 8 0.0000 -16.92 19.94 88.2 
255 1 5 0.0000 -16.21 16.94 88.11 
256 1 10 1.0000 -17.32 13.68 86.61 
257 2 9 -1.0000 -20.1 19.01 88.99 
258 1 2 0.0000 -21.68 19.7 87.01 
259 4 22 0.0000 -16.5 82.1 102.66 
260 4 21 0.0000 -14.62 82.01 102.82 
261 3 27 0.0000 -14.68 79.4 101.29 
262 3 23 0.0000 -14.43 77.23 102.06 
263 3 24 0.0000 -14.43 76.55 99.47 
264 3 28 0.0000 -14.73 79.47 99.67 
265 4 20 -1.0000 -13.08 83.04 104.73 
266 4 22 0.0000 -13.12 79.56 105.7 
267 4 21 0.0000 -11.24 79.4 105.79 
268 3 27 0.0000 -11.41 79.07 103.15 
269 3 29 0.0000 -11.17 76.93 102.61 
270 3 30 0.0000 -11.35 79.34 100.46 
271 4 20 -1.0000 -9.7 79.22 107.96 
272 4 22 0.0000 -9.74 75.77 106.89 
273 4 21 0.0000 -7.86 75.6 106.88 
274 3 27 0.0000 -7.92 75.89 103.87 
275 3 23 0.0000 -7.67 74.29 102.22 
276 3 24 0.0000 -7.67 76.37 100.53 
277 3 28 0.0000 -7.97 77.39 103.26 
278 4 20 -1.0000 -6.31999999999999 74.27 108.61 
279 4 22 0.0000 -6.36 71.95 105.85 
280 4 21 0.0000 -4.48 71.8 105.75 
281 3 27 0.0000 -4.65 74.07 104.34 
282 3 31 0.0000 -4.41 73.72 102.18 
283 3 32 0.0000 -4.54 76.39 103 
284 4 20 -1.0000 -2.94 69.76 106.48 
285 4 22 0.0000 -2.98 69.29 102.9 
286 4 21 0.0000 -1.1 69.23 102.74 
287 3 27 0.0000 -1.27 71.89 102.78 
288 3 31 0.0000 -1.03 72.76 100.77 
289 3 32 0.0000 -1.16 74.57 102.91 
290 4 20 -1.0000 0.439999999999998 67.11 102.25 
291 4 22 0.0000 0.399999999999999 68.65 98.99 
292 4 21 0.0000 2.28 68.69 98.81 
293 3 27 0.0000 2.22000000000001 71.63 99.54 
294 3 23 0.0000 2.47 73.49 98.19 
295 3 24 0.0000 2.47 74.87 100.48 
296 3 28 0.0000 2.16999999999999 72.02 101.11 
297 4 20 -1.0000 3.81999999999999 67.17 97.26 
298 4 22 0.0000 3.78 70.23 95.35 
299 4 21 0.0000 5.66 70.36 95.22 
300 3 27 0.0000 5.60000000000001 72.44 97.41 
301 3 25 0.0000 5.91999999999999 75.38 97.13 
302 3 26 0.0000 5.85 74.68 99.99 
303 3 28 0.0000 5.55 71.95 98.97 
304 4 20 -1.0000 7.2 69.92 93.09 
305 4 22 0.0000 7.16 73.53 93.14 
306 4 21 0.0000 9.04 73.7 93.1 
307 3 27 0.0000 8.87 73.27 95.73 
308 3 31 0.0000 9.11 75.14 96.88 
309 3 32 0.0000 8.98 72.77 98.36 
310 4 20 -1.0000 10.58 74.48 91.07 
311 4 22 0.0000 10.54 77.49 93.06 
312 4 21 0.0000 12.42 77.66 93.12 
313 3 27 0.0000 12.25 75.88 95.1 
314 3 29 0.0000 12.49 76.87 97.07 
315 3 30 0.0000 12.31 73.67 96.67 
316 4 20 -1.0000 13.96 79.41 91.84 
317 4 22 0.0000 13.92 80.87 95.15 
318 4 21 0.0000 15.8 80.98 95.29 
319 3 27 0.0000 15.63 78.41 95.99 
320 3 29 0.0000 15.87 78.18 98.18 
321 3 30 0.0000 15.69 75.71 96.11

Bonds

1 18 1 3 
2 13 3 5 
3 13 5 9 
4 13 9 11 
5 13 11 14 
6 13 14 16 
7 13 16 19 
8 13 19 21 
9 13 21 23 
10 13 23 25 
11 13 25 29 
12 13 29 31 
13 13 31 35 
14 13 35 36 
15 13 36 38 
16 13 38 40 
17 13 40 42 
18 13 42 44 
19 13 44 46 
20 11 46 48 
21 11 48 50 
22 13 50 52 
23 13 52 56 
24 13 56 58 
25 13 58 60 
26 13 60 62 
27 13 62 64 
28 11 64 66 
29 11 66 67 
30 13 67 69 
31 13 69 71 
32 13 71 73 
33 13 73 75 
34 13 75 77 
35 13 77 79 
36 13 79 83 
37 13 83 85 
38 13 85 88 
39 13 88 93 
40 13 93 96 
41 13 96 100 
42 13 100 103 
43 13 103 104 
44 13 104 107 
45 13 107 109 
46 13 109 111 
47 13 111 115 
48 13 115 117 
49 13 117 121 
50 13 121 123 
51 11 123 124 
52 11 124 125 
53 13 125 127 
54 13 127 129 
55 13 129 132 
56 13 132 134 
57 13 134 136 
58 11 136 138 
59 11 138 140 
60 13 140 142 
61 13 142 144 
62 13 144 148 
63 13 148 150 
64 11 150 152 
65 11 152 153 
66 13 153 156 
67 13 156 158 
68 13 158 160 
69 13 160 162 
70 13 162 164 
71 13 164 166 
72 13 166 168 
73 13 168 170 
74 13 170 173 
75 13 173 174 
76 11 174 176 
77 11 176 177 
78 13 177 179 
79 13 179 181 
80 13 181 184 
81 13 184 186 
82 13 186 188 
83 13 188 191 
84 13 191 193 
85 11 193 195 
86 11 195 196 
87 13 196 198 
88 13 198 200 
89 13 200 204 
90 13 204 206 
91 13 206 207 
92 13 207 209 
93 13 209 213 
94 13 213 215 
95 13 215 217 
96 13 217 219 
97 13 219 221 
98 13 221 223 
99 13 223 225 
100 13 225 227 
101 13 227 229 
102 13 229 232 
103 13 232 234 
104 13 234 235 
105 13 235 237 
106 13 237 239 
107 13 239 241 
108 13 241 243 
109 13 243 245 
110 13 245 247 
111 13 247 250 
112 13 250 254 
113 15 254 257 
114 2 1 2 
115 1 3 4 
116 22 5 6 
117 14 9 10 
118 4 11 12 
119 5 12 13 
120 4 16 17 
121 5 17 18 
122 10 19 20 
123 16 23 24 
124 22 25 26 
125 22 31 32 
126 14 36 37 
127 17 38 39 
128 3 48 49 
129 7 50 51 
130 22 52 53 
131 14 60 61 
132 6 62 63 
133 16 64 65 
134 12 67 68 
135 14 69 70 
136 16 75 76 
137 20 79 80 
138 4 85 86 
139 5 86 87 
140 19 88 89 
141 4 93 94 
142 5 94 95 
143 22 96 97 
144 4 100 101 
145 5 101 102 
146 8 104 105 
147 9 105 106 
148 17 107 108 
149 20 111 112 
150 22 117 118 
151 17 121 122 
152 1 125 126 
153 14 127 128 
154 4 129 130 
155 5 130 131 
156 10 132 133 
157 3 138 139 
158 17 142 143 
159 22 144 145 
160 10 148 149 
161 10 150 151 
162 4 153 154 
163 5 154 155 
164 16 158 159 
165 10 162 163 
166 12 164 165 
167 1 166 167 
168 1 168 169 
169 4 170 171 
170 5 171 172 
171 17 174 175 
172 10 177 178 
173 1 179 180 
174 4 181 182 
175 5 182 183 
176 6 184 185 
177 17 186 187 
178 4 188 189 
179 5 189 190 
180 10 191 192 
181 17 193 194 
182 10 198 199 
183 21 200 201 
184 14 207 208 
185 20 209 210 
186 7 215 216 
187 16 217 218 
188 16 223 224 
189 1 225 226 
190 8 229 230 
191 9 230 231 
192 16 232 233 
193 16 235 236 
194 16 243 244 
195 1 245 246 
196 4 247 248 
197 5 248 249 
198 20 250 251 
199 8 254 255 
200 9 255 256 
201 23 6 7 
202 24 6 8 
203 25 7 8 
204 26 14 15 
205 27 21 22 
206 28 26 27 
207 29 26 28 
208 30 27 28 
209 31 29 30 
210 32 32 33 
211 33 32 34 
212 34 33 34 
213 35 40 41 
214 36 42 43 
215 37 44 45 
216 38 46 47 
217 39 53 54 
218 40 53 55 
219 41 54 55 
220 42 56 57 
221 43 58 59 
222 44 71 72 
223 45 73 74 
224 46 77 78 
225 47 80 81 
226 48 80 82 
227 49 81 82 
228 50 83 84 
229 51 89 90 
230 52 89 91 
231 53 90 91 
232 54 90 92 
233 55 91 92 
234 56 97 98 
235 57 97 99 
236 58 98 99 
237 59 109 110 
238 60 112 113 
239 61 112 114 
240 62 113 114 
241 63 115 116 
242 64 118 119 
243 65 118 120 
244 66 119 120 
245 67 134 135 
246 68 136 137 
247 69 140 141 
248 70 145 146 
249 71 145 147 
250 72 146 147 
251 73 156 157 
252 74 160 161 
253 75 196 197 
254 76 201 202 
255 77 201 203 
256 78 202 203 
257 79 204 205 
258 80 210 211 
259 81 210 212 
260 82 211 212 
261 83 213 214 
262 84 219 220 
263 85 221 222 
264 86 227 228 
265 87 237 238 
266 88 239 240 
267 89 241 242 
268 90 251 252 
269 91 251 253 
270 92 252 253 
271 93 257 258 
272 99 259 260 
273 97 260 265 
274 98 265 266 
275 99 266 267 
276 97 267 271 
277 98 271 272 
278 99 272 273 
279 97 273 278 
280 98 278 279 
281 99 279 280 
282 97 280 284 
283 98 284 285 
284 99 285 286 
285 97 286 290 
286 98 290 291 
287 99 291 292 
288 97 292 297 
289 98 297 298 
290 99 298 299 
291 97 299 304 
292 98 304 305 
293 99 305 306 
294 97 306 310 
295 98 310 311 
296 99 311 312 
297 97 312 316 
298 98 316 317 
299 99 317 318 
300 101 260 261 
301 102 262 264 
302 100 267 268 
303 101 273 274 
304 102 275 277 
305 100 280 281 
306 100 286 287 
307 101 292 293 
308 102 294 296 
309 101 299 300 
310 103 301 303 
311 100 306 307 
312 100 312 313 
313 100 318 319 
314 104 261 262 
315 105 262 263 
316 106 263 264 
317 107 264 261 
318 108 268 269 
319 109 269 270 
320 110 270 268 
321 111 274 275 
322 112 275 276 
323 113 276 277 
324 114 277 274 
325 115 281 282 
326 116 282 283 
327 117 283 281 
328 118 287 288 
329 119 288 289 
330 120 289 287 
331 121 293 294 
332 122 294 295 
333 123 295 296 
334 124 296 293 
335 125 300 301 
336 126 301 302 
337 127 302 303 
338 128 303 300 
339 129 307 308 
340 130 308 309 
341 131 309 307 
342 132 313 314 
343 133 314 315 
344 134 315 313 
345 135 319 320 
346 136 320 321 
347 137 321 319 
348 138 259 265 
349 138 260 266 
350 138 265 267 
351 138 266 271 
352 138 267 272 
353 138 271 273 
354 138 272 278 
355 138 273 279 
356 138 278 280 
357 138 279 284 
358 138 280 285 
359 138 284 286 
360 138 285 290 
361 138 286 291 
362 138 290 292 
363 138 291 297 
364 138 292 298 
365 138 297 299 
366 138 298 304 
367 138 299 305 
368 138 304 306 
369 138 305 310 
370 138 306 311 
371 138 310 312 
372 138 311 316 
373 138 312 317 
374 138 316 318 
375 138 259 261 
376 138 259 262 
377 138 259 263 
378 138 259 264 
379 138 260 262 
380 138 260 263 
381 138 260 264 
382 138 261 263 
383 138 265 268 
384 138 265 269 
385 138 265 270 
386 138 266 268 
387 138 266 269 
388 138 266 270 
389 138 267 269 
390 138 267 270 
391 138 271 274 
392 138 271 275 
393 138 271 276 
394 138 271 277 
395 138 272 274 
396 138 272 275 
397 138 272 276 
398 138 272 277 
399 138 273 275 
400 138 273 276 
401 138 273 277 
402 138 274 276 
403 138 278 281 
404 138 278 282 
405 138 278 283 
406 138 279 281 
407 138 279 282 
408 138 279 283 
409 138 280 282 
410 138 280 283 
411 138 284 287 
412 138 284 288 
413 138 284 289 
414 138 285 287 
415 138 285 288 
416 138 285 289 
417 138 286 288 
418 138 286 289 
419 138 290 293 
420 138 290 294 
421 138 290 295 
422 138 290 296 
423 138 291 293 
424 138 291 294 
425 138 291 295 
426 138 291 296 
427 138 292 294 
428 138 292 295 
429 138 292 296 
430 138 293 295 
431 138 297 300 
432 138 297 301 
433 138 297 302 
434 138 297 303 
435 138 298 300 
436 138 298 301 
437 138 298 302 
438 138 298 303 
439 138 299 301 
440 138 299 302 
441 138 299 303 
442 138 300 302 
443 138 304 307 
444 138 304 308 
445 138 304 309 
446 138 305 307 
447 138 305 308 
448 138 305 309 
449 138 306 308 
450 138 306 309 
451 138 310 313 
452 138 310 314 
453 138 310 315 
454 138 311 313 
455 138 311 314 
456 138 311 315 
457 138 312 314 
458 138 312 315 
459 138 316 319 
460 138 316 320 
461 138 316 321 
462 138 317 319 
463 138 317 320 
464 138 317 321 
465 138 318 320 
466 138 318 321

Angles

1 26 1 3 5 
2 22 3 5 9 
3 22 5 9 11 
4 22 9 11 14 
5 22 11 14 16 
6 22 14 16 19 
7 22 16 19 21 
8 22 19 21 23 
9 22 21 23 25 
10 22 23 25 29 
11 22 25 29 31 
12 22 29 31 35 
13 22 31 35 36 
14 22 35 36 38 
15 22 36 38 40 
16 22 38 40 42 
17 22 40 42 44 
18 22 42 44 46 
19 17 44 46 48 
20 21 46 48 50 
21 17 48 50 52 
22 22 50 52 56 
23 22 52 56 58 
24 22 56 58 60 
25 22 58 60 62 
26 22 60 62 64 
27 17 62 64 66 
28 21 64 66 67 
29 17 66 67 69 
30 22 67 69 71 
31 22 69 71 73 
32 22 71 73 75 
33 22 73 75 77 
34 22 75 77 79 
35 22 77 79 83 
36 22 79 83 85 
37 22 83 85 88 
38 22 85 88 93 
39 22 88 93 96 
40 22 93 96 100 
41 22 96 100 103 
42 22 100 103 104 
43 22 103 104 107 
44 22 104 107 109 
45 22 107 109 111 
46 22 109 111 115 
47 22 111 115 117 
48 22 115 117 121 
49 22 117 121 123 
50 17 121 123 124 
51 21 123 124 125 
52 17 124 125 127 
53 22 125 127 129 
54 22 127 129 132 
55 22 129 132 134 
56 22 132 134 136 
57 17 134 136 138 
58 21 136 138 140 
59 17 138 140 142 
60 22 140 142 144 
61 22 142 144 148 
62 22 144 148 150 
63 17 148 150 152 
64 21 150 152 153 
65 17 152 153 156 
66 22 153 156 158 
67 22 156 158 160 
68 22 158 160 162 
69 22 160 162 164 
70 22 162 164 166 
71 22 164 166 168 
72 22 166 168 170 
73 22 168 170 173 
74 22 170 173 174 
75 17 173 174 176 
76 21 174 176 177 
77 17 176 177 179 
78 22 177 179 181 
79 22 179 181 184 
80 22 181 184 186 
81 22 184 186 188 
82 22 186 188 191 
83 22 188 191 193 
84 17 191 193 195 
85 21 193 195 196 
86 17 195 196 198 
87 22 196 198 200 
88 22 198 200 204 
89 22 200 204 206 
90 22 204 206 207 
91 22 206 207 209 
92 22 207 209 213 
93 22 209 213 215 
94 22 213 215 217 
95 22 215 217 219 
96 22 217 219 221 
97 22 219 221 223 
98 22 221 223 225 
99 22 223 225 227 
100 22 225 227 229 
101 22 227 229 232 
102 22 229 232 234 
103 22 232 234 235 
104 22 234 235 237 
105 22 235 237 239 
106 22 237 239 241 
107 22 239 241 243 
108 22 241 243 245 
109 22 243 245 247 
110 22 245 247 250 
111 22 247 250 254 
112 24 250 254 257 
113 4 2 1 3 
114 3 1 3 4 
115 28 3 5 6 
116 23 5 9 10 
117 10 9 11 12 
118 15 11 14 15 
119 10 14 16 17 
120 15 16 19 20 
121 6 19 21 22 
122 25 21 23 24 
123 28 23 25 26 
124 15 25 29 30 
125 28 29 31 32 
126 23 35 36 37 
127 25 36 38 39 
128 15 38 40 41 
129 6 40 42 43 
130 6 42 44 45 
131 2 44 46 47 
132 8 46 48 49 
133 11 48 50 51 
134 28 50 52 53 
135 6 52 56 57 
136 15 56 58 59 
137 23 58 60 61 
138 12 60 62 63 
139 25 62 64 65 
140 16 66 67 68 
141 23 67 69 70 
142 15 69 71 72 
143 15 71 73 74 
144 25 73 75 76 
145 6 75 77 78 
146 27 77 79 80 
147 6 79 83 84 
148 10 83 85 86 
149 27 85 88 89 
150 10 88 93 94 
151 28 93 96 97 
152 10 96 100 101 
153 13 103 104 105 
154 25 104 107 108 
155 2 107 109 110 
156 27 109 111 112 
157 15 111 115 116 
158 28 115 117 118 
159 25 117 121 122 
160 1 124 125 126 
161 23 125 127 128 
162 10 127 129 130 
163 15 129 132 133 
164 15 132 134 135 
165 6 134 136 137 
166 8 136 138 139 
167 14 138 140 141 
168 25 140 142 143 
169 28 142 144 145 
170 15 144 148 149 
171 15 148 150 151 
172 9 152 153 154 
173 2 153 156 157 
174 25 156 158 159 
175 6 158 160 161 
176 15 160 162 163 
177 18 162 164 165 
178 2 164 166 167 
179 2 166 168 169 
180 10 168 170 171 
181 25 173 174 175 
182 14 176 177 178 
183 2 177 179 180 
184 10 179 181 182 
185 12 181 184 185 
186 25 184 186 187 
187 10 186 188 189 
188 15 188 191 192 
189 25 191 193 194 
190 5 195 196 197 
191 15 196 198 199 
192 27 198 200 201 
193 15 200 204 205 
194 23 206 207 208 
195 27 207 209 210 
196 15 209 213 214 
197 12 213 215 216 
198 25 215 217 218 
199 6 217 219 220 
200 15 219 221 222 
201 25 221 223 224 
202 2 223 225 226 
203 15 225 227 228 
204 13 227 229 230 
205 25 229 232 233 
206 25 234 235 236 
207 15 235 237 238 
208 2 237 239 240 
209 2 239 241 242 
210 25 241 243 244 
211 2 243 245 246 
212 10 245 247 248 
213 27 247 250 251 
214 13 250 254 255 
215 7 254 257 258 
216 33 5 6 7 
217 33 5 6 8 
218 19 11 12 13 
219 19 16 17 18 
220 33 25 26 27 
221 33 25 26 28 
222 33 31 32 33 
223 33 31 32 34 
224 33 52 53 54 
225 33 52 53 55 
226 29 79 80 81 
227 32 79 80 82 
228 19 85 86 87 
229 31 88 89 90 
230 30 88 89 91 
231 19 93 94 95 
232 33 96 97 98 
233 33 96 97 99 
234 19 100 101 102 
235 20 104 105 106 
236 29 111 112 113 
237 32 111 112 114 
238 33 117 118 119 
239 33 117 118 120 
240 19 129 130 131 
241 33 144 145 146 
242 33 144 145 147 
243 19 153 154 155 
244 19 170 171 172 
245 19 181 182 183 
246 19 188 189 190 
247 32 200 201 202 
248 32 200 201 203 
249 29 209 210 211 
250 32 209 210 212 
251 20 229 230 231 
252 19 247 248 249 
253 29 250 251 252 
254 32 250 251 253 
255 20 254 255 256 
256 35 259 260 265 
257 40 260 265 266 
258 39 265 266 267 
259 35 266 267 271 
260 40 267 271 272 
261 39 271 272 273 
262 35 272 273 278 
263 40 273 278 279 
264 39 278 279 280 
265 35 279 280 284 
266 40 280 284 285 
267 39 284 285 286 
268 35 285 286 290 
269 40 286 290 291 
270 39 290 291 292 
271 35 291 292 297 
272 40 292 297 298 
273 39 297 298 299 
274 35 298 299 304 
275 40 299 304 305 
276 39 304 305 306 
277 35 305 306 310 
278 40 306 310 311 
279 39 310 311 312 
280 35 311 312 316 
281 40 312 316 317 
282 39 316 317 318 
283 49 259 260 261 
284 41 260 261 262 
285 43 260 261 264 
286 55 261 262 263 
287 38 261 260 265 
288 54 262 261 264 
289 53 262 263 264 
290 56 263 264 261 
291 48 266 267 268 
292 45 267 268 269 
293 51 266 268 270 
294 36 268 267 271 
295 61 268 269 270 
296 65 269 268 270 
297 62 269 270 268 
298 49 272 273 274 
299 41 273 274 275 
300 43 273 274 277 
301 55 274 275 276 
302 38 274 273 278 
303 54 275 274 277 
304 53 275 276 277 
305 56 276 277 274 
306 47 279 280 281 
307 46 280 281 282 
308 52 279 281 283 
309 36 281 280 284 
310 63 281 282 283 
311 66 282 281 283 
312 64 282 283 281 
313 47 285 286 287 
314 46 286 287 288 
315 52 285 287 289 
316 36 287 286 290 
317 63 287 288 289 
318 66 288 287 289 
319 64 288 289 287 
320 49 291 292 293 
321 41 292 293 294 
322 43 292 293 296 
323 55 293 294 295 
324 38 293 292 297 
325 54 294 293 296 
326 53 294 295 296 
327 56 295 296 293 
328 50 298 299 300 
329 42 299 300 301 
330 44 299 300 303 
331 59 300 301 302 
332 37 300 299 304 
333 58 301 300 303 
334 57 301 302 303 
335 60 302 303 300 
336 47 305 306 307 
337 46 306 307 308 
338 52 305 307 309 
339 36 307 306 310 
340 63 307 308 309 
341 66 308 307 309 
342 64 308 309 307 
343 48 311 312 313 
344 45 312 313 314 
345 51 311 313 315 
346 36 313 312 316 
347 61 313 314 315 
348 65 314 313 315 
349 62 314 315 313 
350 48 317 318 319 
351 45 318 319 320 
352 51 317 319 321 
353 61 319 320 321 
354 65 320 319 321 
355 62 320 321 319

Dihedrals

1 10 259 260 265 266 
2 2 260 265 266 267 
3 9 267 271 272 273 
4 1 273 278 279 280 
5 3 280 284 285 286 
6 4 286 290 291 292 
7 5 292 297 298 299 
8 6 299 304 305 306 
9 7 306 310 311 312 
10 8 312 316 317 318

Impropers

1 2 5 7 8 6 
2 2 25 27 28 26 
3 2 31 33 34 32 
4 2 52 54 55 53 
5 1 79 81 82 80 
6 3 88 90 91 89 
7 5 89 90 92 91 
8 2 96 98 99 97 
9 1 111 113 114 112 
10 2 117 119 120 118 
11 2 144 146 147 145 
12 4 200 202 203 201 
13 1 209 211 212 210 
14 1 250 252 253 251 
15 6 265 266 267 271 
16 6 271 272 273 278 
17 6 278 279 280 284 
18 6 284 285 286 290 
19 6 290 291 292 297 
20 6 297 298 299 304 
21 6 304 305 306 310 
22 6 310 311 312 316 
23 12 259 260 261 262 
24 15 259 260 261 264 
25 9 265 266 267 268 
26 16 266 267 268 269 
27 10 267 266 268 270 
28 7 271 272 273 274 
29 12 272 273 274 275 
30 15 272 273 274 277 
31 8 278 279 280 281 
32 17 279 280 281 282 
33 11 280 279 281 283 
34 8 284 285 286 287 
35 17 285 286 287 288 
36 11 286 285 287 289 
37 7 290 291 292 293 
38 12 291 292 293 294 
39 15 291 292 293 296 
40 7 297 298 299 300 
41 13 298 299 300 301 
42 14 298 299 300 303 
43 8 304 305 306 307 
44 17 305 306 307 308 
45 11 306 305 307 309 
46 9 310 311 312 313 
47 16 311 312 313 314 
48 10 312 311 313 315 
49 9 316 317 318 319 
50 16 317 318 319 320 
51 10 318 317 319 321
