LAMMPS data file via write_data, version 31 Aug 2021, timestep = 5353

7536 atoms
32 atom types
7666 bonds
138 bond types
2755 angles
66 angle types
10 dihedrals
10 dihedral types
51 impropers
17 improper types

-45.02349167723834 16.281689576913717 xlo xhi
-26.93649862730099 44.796880163031105 ylo yhi
50.97521994778801 111.65020334750787 zlo zhi

Masses

1 72
2 72
3 72
4 72
5 72
6 72
7 72
8 72
9 72
10 72
11 45
12 45
13 45
14 45
15 24
16 24
17 24
18 72
19 72
20 72
21 45
22 45
23 45
24 45
25 45
26 45
27 45
28 45
29 45
30 45
31 45
32 45

Atoms # full

3586 15 15 0 -39.402225512192864 -24.575004804926387 51.66713813951302 1 0 0
6268 15 15 0 -39.52100381045099 -22.92507765068447 55.90718628579755 1 0 0
6270 15 17 -0.46 -40.68728440800968 -22.11703425160531 55.93969115294203 1 0 0
6269 15 16 0.46 -39.39066415277498 -23.516999067457963 54.62503436454095 1 0 0
3588 15 17 -0.46 -39.33055062156381 -24.16146984054573 53.02181426078251 1 0 0
4193 15 16 0.46 -42.08986215707939 -21.129804436266248 55.931292695756234 0 0 0
4192 15 15 0 -43.28115227050816 -20.362589397800825 55.85750261868036 0 0 0
6762 15 17 -0.46 -44.06021742104989 -25.294692473797173 51.657463261259366 1 0 1
6760 15 15 0 -44.44933620378378 -24.258120910638507 52.54402104579345 1 0 1
3587 15 16 0.46 -40.184858965552486 -23.466192446535285 51.26716583599216 1 0 0
447 15 17 -0.46 -41.13612809852216 -21.83937745709791 51.02009101688483 1 1 0
3399 15 17 -0.46 -34.513377566867625 -21.778341825873202 54.11074909377199 1 1 0
3398 15 16 0.46 -34.10451479632186 -24.42197616363515 53.54600503912066 1 1 0
3397 15 15 0 -34.670433535416564 -23.1733294868674 53.90970997665004 1 1 0
6477 15 17 -0.46 -33.40844043629186 -25.987330932462452 53.121672755752236 1 0 0
1211 15 16 0.46 -36.07185562034415 -26.661487976995332 57.161061321286724 0 1 0
466 15 15 0 -30.848876546852235 -24.838817581082765 57.200709355958026 0 1 1
1210 15 15 0 -35.6401182628558 -25.749087047201435 58.16181080836597 0 1 0
1212 15 17 -0.46 -35.63076449193346 -24.33640682800915 58.291013098455224 0 1 0
467 15 16 0.46 -31.136324475936288 -24.272901688610244 58.468286723987426 0 1 1
6506 15 16 0.46 -35.605953276136205 -22.625071174567946 58.53518804463231 1 0 0
468 15 17 -0.46 -30.37123676636958 -24.448977165165786 55.92187306031564 0 1 1
434 15 16 0.46 -29.800935794865342 -24.06056128297358 54.37055240495233 0 1 0
5807 15 16 0.46 -31.19510479450736 -20.012150987967896 51.27335388754642 0 1 0
674 15 16 0.46 -34.39656214621108 -20.022498719457108 54.37386707284504 1 1 1
435 15 17 -0.46 -29.57733348120661 -24.25436808861829 51.80422567951485 0 1 0
433 15 15 0 -29.323081990758347 -23.696760031976975 53.08391333733279 0 1 0
6252 15 17 -0.46 -26.625533934099366 -26.877896893805026 54.97485947309861 0 1 0
6250 15 15 0 -25.64185446098978 -25.955500021096935 55.41674904590514 0 1 0
6251 15 16 0.46 -25.91233185285253 -24.66534886760702 55.939467490629696 0 1 0
3957 15 17 -0.46 -24.26227992548763 -22.798934578302674 52.07377465446991 0 1 1
3955 15 15 0 -23.82286057823051 -21.60019290182857 52.68503354104176 0 1 1
3956 15 16 0.46 -24.160873166850383 -20.30781165172666 52.21233371693491 0 1 1
4788 15 17 -0.46 -26.312577810485845 -23.069965887810728 56.5600587758122 0 1 0
4786 15 15 0 -26.60427774752976 -21.786574062004625 57.08740446364734 0 1 0
4787 15 16 0.46 -27.861869824956308 -21.20528112252034 57.387075705819086 0 1 0
3375 15 17 -0.46 -29.34909196634219 -20.32110660959905 57.722554200811935 0 0 0
3818 15 16 0.46 -24.866791615465775 -24.337623011518208 51.27518104691153 0 1 0
3690 15 17 -0.46 -22.084886110139692 -20.407301389322175 56.942932751015405 0 1 0
1619 15 16 0.46 -21.912246194631596 -22.177309112414832 57.04672605639075 1 0 0
1618 15 15 0 -21.680383032578487 -23.57409490571925 57.11617630371069 1 0 0
1620 15 17 -0.46 -21.434867447933254 -24.290136634870997 55.918044753403535 1 0 0
964 15 15 0 -20.92569353805655 -26.00359453875046 53.23530856961058 0 0 1
965 15 16 0.46 -21.159830294489442 -25.288812900921045 54.4362449522477 0 0 1
6914 15 16 0.46 -18.07652306937923 -22.50978795647248 54.25859666923534 0 0 0
6915 15 17 -0.46 -17.873827326488502 -20.77081998165744 52.51180329288128 0 0 0
6913 15 15 0 -18.655204792735926 -21.499796154801277 53.443902181600826 0 0 0
4983 15 17 -0.46 -15.082962270570224 -25.836250115947873 51.91679988476336 0 0 1
2701 15 15 0 -16.707557114697188 -24.746552742234936 55.92824044744978 0 1 0
2703 15 17 -0.46 -17.327142482705607 -23.718316954473565 55.16836494939321 0 1 0
2702 15 16 0.46 -15.559767703636622 -24.546249627056795 56.737959091499604 0 1 0
4981 15 15 0 -15.879749851016555 -26.931133716381666 51.50110975187366 0 0 1
977 15 16 0.46 -14.181274050356546 -24.298207475218426 52.319877650277796 0 0 0
7197 15 17 -0.46 -14.169601550294356 -24.230178115446396 57.70920251022619 0 0 0
6260 15 16 0.46 -14.15770605288381 -20.686076979351775 54.76054671858042 0 0 0
978 15 17 -0.46 -13.883232122720177 -22.035605197885342 53.45707778611186 0 0 0
976 15 15 0 -13.541325088568524 -23.053163672042853 52.53448754177855 0 0 0
2737 15 15 0 -9.581266711817195 -25.59639321928392 55.182770821460636 0 1 0
2739 15 17 -0.46 -9.64563571759826 -24.17874579187013 55.236079090602786 0 1 0
6450 15 17 -0.46 -10.186646593453563 -20.31817844051165 54.17477150005991 0 1 0
6449 15 16 0.46 -9.726745317404648 -22.512286997682104 55.27973941521454 0 1 0
6448 15 15 0 -9.804609290559421 -21.094506585078477 55.297411325919946 0 1 0
1442 15 16 0.46 -7.708203497900098 -22.438035778275587 51.109289876859506 0 1 0
2738 15 16 0.46 -9.952361734279908 -26.216559694566268 53.962377650611245 0 1 0
7195 15 15 0 -13.048631056253729 -23.94032199110218 58.52989656423769 0 0 0
6783 15 17 -0.46 -10.403535185613997 -26.90941714043251 52.433774910714305 0 1 1
5569 15 15 0 -5.1707073013863445 -26.5165935847914 52.97690415321031 0 1 1
405 15 17 -0.46 -6.524376054249405 -21.781963691640097 52.181985717341796 0 0 1
5571 15 17 -0.46 -4.520569293772904 -25.819869387541548 54.02559422488045 0 1 1
5570 15 16 0.46 -4.873501389302184 -25.848281974171258 51.763314755162334 0 1 1
5308 15 15 0 -2.977573770344717 -24.10010618977366 56.27707202854114 0 1 0
5309 15 16 0.46 -3.6692153705489727 -24.842215430753757 55.287233163529415 0 1 0
6635 15 16 0.46 -0.8686823983721205 -21.69976513612047 56.1506272574789 0 0 0
5310 15 17 -0.46 -2.064811621487126 -23.017477209497017 56.21786863077053 0 1 0
6634 15 15 0 0.09418294134354802 -20.662611821211303 56.06746499479937 0 0 0
403 15 15 0 -5.528412687976729 -21.201450752899213 53.00846472693975 0 0 1
1707 15 17 -0.46 -1.2802067708130607 -24.323608714691986 51.19602816216948 0 0 0
1705 15 15 0 -0.2547697040024794 -24.45854038648864 52.162639165690535 0 0 0
404 15 16 0.46 -5.942066165365964 -19.880581276831133 53.31336809929186 0 0 1
4670 15 16 0.46 -5.367157342217294 -20.439182930793752 58.05375669030068 0 0 1
1706 15 16 0.46 0.9207343512844128 -25.227401561129007 51.96235764741838 0 0 0
5451 15 17 -0.46 1.6480638928192621 -25.58227419291517 57.45931183646878 0 1 0
6636 15 17 -0.46 1.2588431033309126 -21.11642064557668 55.40216337770057 0 0 0
5449 15 15 0 2.190144908291027 -24.537932804074597 58.2468224080391 0 1 0
2066 15 16 0.46 2.759264350051661 -21.766628363940743 54.5959921080475 0 0 0
2065 15 15 0 4.016691681790822 -22.117905798086007 54.04845533677057 0 0 0
2067 15 17 -0.46 4.603862021241081 -21.093318364424302 54.83193182533228 0 0 0
3847 15 15 0 7.694464087416236 -23.432067283763548 57.187332401436635 0 0 0
3185 15 16 0.46 8.434458295476126 -24.641177638990055 51.5899301617982 0 1 1
7458 15 17 -0.46 2.422978006915275 -26.06021479033368 51.805150591530335 0 1 1
3849 15 17 -0.46 7.317084284697808 -24.17145100770951 58.339033001954334 0 0 0
3848 15 16 0.46 8.44498576317166 -22.30568705589886 57.609142174019006 0 0 0
7456 15 15 0 3.615648639314773 -26.803958423789833 51.60985931914318 0 1 1
3765 15 17 -0.46 8.61596410424789 -25.940975054407236 52.87188491257896 0 0 0
3752 15 16 0.46 5.080707889881999 -19.785282847623943 55.931629337110024 0 0 0
6761 15 16 0.46 16.121559239585004 -23.08211886688664 52.238442765824466 0 0 1
6628 15 15 0 16.11673981780891 -25.287391857163804 57.486826420374896 0 1 0
5769 15 17 -0.46 10.717018278593265 -21.18412509225619 54.20851938708084 -1 0 1
6629 15 16 0.46 15.012644268462875 -24.717100551407388 56.8010480197413 0 1 0
4079 15 16 0.46 11.744787344309982 -22.45743165178403 54.734728705890284 0 1 0
4078 15 15 0 12.566409447644343 -23.492388251279326 55.25244844945001 0 1 0
4080 15 17 -0.46 13.690296989819151 -24.026208249545274 55.935890135774635 0 1 0
2544 15 17 -0.46 15.257278377733025 -21.652935802887704 51.901760959426305 0 0 1
5767 15 15 0 9.886571586936038 -20.14485166444214 53.714886292907025 -1 0 1
7356 15 17 -0.46 9.349252280489939 -20.919385932795066 58.221228426922245 0 1 0
2542 15 15 0 14.504550614390148 -20.485667501467308 51.60984143877509 0 0 1
446 15 16 0.46 -41.04530485742798 -19.681564808106835 51.72583252503495 1 1 0
4194 15 17 -0.46 -44.482942611320226 -19.623307043025967 55.99518568077927 0 0 0
6678 15 17 -0.46 -40.13877238034047 -18.61238309327483 52.835501219462856 1 0 0
6676 15 15 0 -39.135293506278735 -17.895433783437245 53.53139237306471 1 0 0
5174 15 16 0.46 -39.45757187181243 -13.081407478809023 52.859308367302624 1 1 1
4315 15 15 0 -41.63860784664732 -15.14373488052425 57.21812005288881 1 0 1
4316 15 16 0.46 -40.960422125755215 -13.949181331408187 56.87860729842166 1 0 1
4317 15 17 -0.46 -41.144230333230205 -14.832244605131624 58.507418484718485 1 0 1
6677 15 16 0.46 -38.26430479660638 -18.500686766265552 52.595361051608386 1 0 0
6049 15 15 0 -44.280435194953 -16.349366749803025 52.545662124401964 1 0 1
1131 15 17 -0.46 -37.76781294652518 -13.351466041754891 53.18802744738397 0 0 1
5173 15 15 0 -40.83234472073292 -12.866568683105516 52.58601178688302 1 1 1
6050 15 16 0.46 -45.01829898792828 -16.752475655719003 53.683720118192404 1 0 1
7377 15 17 -0.46 -37.45995600163499 -19.52796967916354 51.202687524158144 1 0 1
673 15 15 0 -34.27167762236824 -18.622557012315987 54.56150292218449 1 1 1
675 15 17 -0.46 -34.78558966717475 -17.82327819193204 55.61317218382082 1 1 1
1567 15 15 0 -35.83347649599234 -15.8925874056454 57.94123947720275 1 0 0
1569 15 17 -0.46 -35.43813058600294 -14.530932280924754 57.93225628108761 1 0 0
1568 15 16 0.46 -35.368804615041405 -16.733375936241007 56.898662557565835 1 0 0
1129 15 15 0 -36.384273700844886 -13.348307581634733 53.49814505623492 0 0 1
6974 15 16 0.46 -32.23458885811764 -15.066365157865096 52.25982220262304 0 0 0
820 15 15 0 -31.30337753745647 -14.294546644439686 55.160918300284216 1 0 0
822 15 17 -0.46 -31.840472878427978 -14.66679524022586 53.90491253157603 1 0 0
821 15 16 0.46 -30.166621850486532 -13.917052546869872 54.41852217092684 1 0 0
1614 15 17 -0.46 -30.079886022451937 -19.281057478166247 52.4568777631483 0 0 0
3373 15 15 0 -30.615022867788863 -19.75166181655765 58.01147027962457 0 0 0
5693 15 16 0.46 -34.95906105032438 -12.826446586604657 57.8620041043218 0 0 1
5401 15 15 0 -26.88450671656808 -16.459119269060878 56.75113086147096 0 0 0
5403 15 17 -0.46 -27.64384393688126 -17.132899171095104 55.7654819134764 0 0 0
5402 15 16 0.46 -27.71857489239063 -16.242877337381305 57.85846979089989 0 0 0
331 18 18 -1 -27.82731136747312 -13.718548938904744 51.89769955095068 0 0 0
1613 15 16 0.46 -28.494215166169578 -17.92675533006621 54.352409842275435 0 0 0
1612 15 15 0 -29.166268611634703 -18.64626165396526 53.33536632781322 0 0 0
4092 15 17 -0.46 -24.550941570768355 -18.67135736592954 51.61078488904398 0 0 1
3037 15 15 0 -23.093287050752128 -13.843974522014115 54.66794694027324 0 0 0
3038 15 16 0.46 -22.27679950681299 -14.881221306479516 54.155153299920784 0 0 0
3688 15 15 0 -22.258308338888423 -19.00243164839816 56.86568445454856 0 1 0
4091 15 16 0.46 -25.79270440067975 -16.35780086760193 51.31669295818317 0 0 1
4090 15 15 0 -24.83801575866702 -17.37598528198868 51.11339239762834 0 0 1
3039 15 17 -0.46 -22.058607853217545 -12.955565768028329 54.28994988800142 0 0 0
6259 15 15 0 -14.475907140086237 -19.652484386038925 55.67331172100708 0 0 0
2252 15 16 0.46 -16.772497003678534 -19.675240471484678 51.61789210355821 0 0 0
3047 15 16 0.46 -20.306606266575454 -17.51073524185691 51.5541666627719 0 0 1
3046 15 15 0 -20.13753484715777 -16.85427535586796 52.79760502424669 0 0 1
3048 15 17 -0.46 -21.135374590443416 -16.010497876022146 53.34287185077622 0 0 1
4566 15 17 -0.46 -20.162824716764245 -16.67465047721845 57.32856614623925 0 0 1
3689 15 16 0.46 -21.2929383526017 -17.983522173582745 57.07247941037773 0 1 0
4564 15 15 0 -19.22048037593949 -15.628314864591006 57.49965474241739 0 0 1
4565 15 16 0.46 -17.895274839303724 -15.716613593133115 57.996303545153644 0 0 1
3171 15 17 -0.46 -15.469091222586007 -14.550207747698405 52.527136147685944 0 0 1
3169 15 15 0 -15.483502023723853 -14.947342988846152 53.887870208961886 0 0 1
3170 15 16 0.46 -14.729303493410448 -13.90717976528892 54.488851300558046 0 0 1
5090 15 16 0.46 -10.685606219744018 -19.301568514904563 52.76563490943277 0 1 1
6261 15 17 -0.46 -13.465778868576544 -18.670036418782207 55.81428369390745 0 0 0
898 15 15 0 -11.096077094751895 -16.47288185236656 56.18420229580511 0 0 0
899 15 16 0.46 -12.104770901732243 -17.458320551959467 56.04935637633382 0 0 0
5089 15 15 0 -11.054371728322694 -18.519396229238126 51.642652135158265 0 1 1
692 15 16 0.46 -10.551635957917853 -15.378742287542076 51.5193503916929 0 1 1
691 15 15 0 -10.239586137775047 -13.997924820102838 51.42394012814878 0 1 1
5091 15 17 -0.46 -10.82906397651789 -17.11971271428112 51.596067072408665 0 1 1
900 15 17 -0.46 -9.863780293992908 -16.57536005541723 55.49187275115413 0 0 0
4123 15 15 0 -7.037700598256696 -16.93520401414676 53.996815052065344 0 1 1
4124 15 16 0.46 -8.272507491227284 -16.825218430841865 54.68375126109253 0 1 1
2379 15 17 -0.46 -13.744198426758418 -12.627541608725368 55.08132619856779 0 0 0
5683 15 15 0 -1.234934460130621 -19.744841169495647 51.14894287683702 0 0 1
4125 15 17 -0.46 -6.528620561121842 -18.219646643304475 53.68391916616597 0 1 1
3414 15 17 -0.46 -2.8956775711745197 -15.06891989585767 54.553528447367654 0 0 1
3413 15 16 0.46 -2.9774482225928023 -17.16617309101224 55.87087410301173 0 0 1
3412 15 15 0 -2.2550783243016657 -16.192337970857928 55.13614148993549 0 0 1
4669 15 15 0 -4.55818549309967 -19.38441638305492 57.557990432520654 0 0 1
4671 15 17 -0.46 -3.8270886190784843 -18.432273157703676 56.804032399533895 0 0 1
5685 15 17 -0.46 -0.13505439598727978 -18.997273280386803 51.64106539548617 0 0 1
2825 15 16 0.46 -3.7358519080614485 -13.691714979373536 53.8845244841066 0 0 0
2824 15 15 0 -4.476616497449216 -12.603785097994058 53.35398950347324 0 0 0
2900 15 16 0.46 1.3129426294656574 -18.211228439460616 52.28056131015138 0 0 0
4567 15 15 0 2.2034933315752223 -15.079100015820089 57.134838167500035 0 0 1
2899 15 15 0 2.4161067902017774 -17.494853311253433 52.81080055181244 0 0 0
2901 15 17 -0.46 3.8043369541642877 -17.40109768947852 52.53412635540606 0 0 0
4568 15 16 0.46 3.244790287918614 -14.456535670295558 56.39884653976508 0 0 1
657 15 17 -0.46 7.838929504787257 -18.12326338998088 52.52779113084367 -1 0 0
656 15 16 0.46 5.512919901743993 -17.305441093970106 52.228164325185745 -1 0 0
1185 15 17 -0.46 4.4993927495043495 -13.685526288363667 55.53046155925113 0 0 1
3751 15 15 0 5.4576757285430615 -18.80818082994606 56.88592042461191 0 0 0
1183 15 15 0 5.589244110603243 -13.11777181290439 54.82220787603819 0 0 1
655 15 15 0 6.905269458215186 -17.208988287001258 51.973174101670885 -1 0 0
3753 15 17 -0.46 5.3744753913899475 -19.411578281518764 58.166597558036074 0 0 0
4569 15 17 -0.46 2.634635405361794 -15.399046801473533 58.447500544657785 0 0 1
5768 15 16 0.46 8.962211756621539 -19.226883022469547 53.15137122652791 -1 0 1
1352 15 16 0.46 10.080223444565515 -14.573053277719987 55.88817656140222 0 0 1
1351 15 15 0 9.652110320788138 -15.791382116289153 56.47343571337306 0 0 1
1353 15 17 -0.46 9.824825347302992 -17.013444617866053 57.17189341693722 0 0 1
6051 15 17 -0.46 15.730559490467238 -16.172043343454764 52.00744175751796 0 0 1
6853 15 15 0 14.276849476699104 -17.78138657934886 55.985644517773 0 0 0
6854 15 16 0.46 15.366937028737215 -18.683074002597994 56.07954101542738 0 0 0
6855 15 17 -0.46 15.02853874126821 -17.209227018779117 54.9322487506244 0 0 0
4857 15 17 -0.46 10.553552221744216 -13.04297600187566 55.18166048692073 0 0 1
7355 15 16 0.46 9.924417382148514 -18.55927077896558 58.00599146406297 0 1 0
2944 15 15 0 12.513472063832992 -15.654077631646503 51.51891213977343 0 0 1
2945 15 16 0.46 13.83923651093602 -16.063164907564058 51.784951421072314 0 0 1
2946 15 17 -0.46 13.18953447363053 -14.440441072013966 51.25022958130721 0 0 1
5175 15 17 -0.46 -41.551184895592975 -11.70505705391522 52.96504225935421 1 1 1
5210 15 16 0.46 -42.447569800696 -10.282777693624018 53.439666495611654 0 0 1
5209 15 15 0 -43.249026082284196 -9.222139339626121 53.9327294602924 0 0 1
2755 15 15 0 -39.49610757524684 -11.043736701429026 56.906713867559965 1 0 0
2756 15 16 0.46 -40.58710250195556 -10.429914821510428 57.57363874393045 1 0 0
2757 15 17 -0.46 -40.06669811981212 -12.336490426308748 56.82569304654154 1 0 0
5211 15 17 -0.46 -44.1044646211538 -10.13668230279773 54.59537528998725 0 0 1
6820 15 15 0 -40.42553187111032 -5.7218097817264395 51.551513598390855 0 0 1
7333 15 15 0 -39.96696486463996 -5.949948213615256 56.66665530549768 0 0 0
7335 15 17 -0.46 -39.81614781835251 -5.6047750219777726 58.03299018466276 0 0 0
1518 15 17 -0.46 -41.975020225081295 -9.870754141277562 58.41609312910533 1 0 0
1130 15 16 0.46 -36.31089409600161 -11.936199514258949 53.599452655668486 0 0 1
2531 15 16 0.46 -35.97397379817682 -8.03521045395513 52.56712538490688 1 0 0
2530 15 15 0 -36.50680032255081 -8.758613792849022 53.6648442443081 1 0 0
2532 15 17 -0.46 -36.40112317784766 -10.171491179083802 53.647346694475246 1 0 0
5694 15 17 -0.46 -33.64243463836395 -10.847241284975285 56.91272654831211 0 0 1
3527 15 16 0.46 -32.55878784539554 -9.980586491717089 55.78073214136556 1 0 1
3526 15 15 0 -31.62335433208466 -9.32295130724555 54.94313042939445 1 0 1
3528 15 17 -0.46 -31.310310561101943 -9.290112226480296 53.562797289302154 1 0 1
3833 15 16 0.46 -30.89196627414351 -9.188967430770484 51.79401423580108 0 0 0
5692 15 15 0 -34.5462829280739 -11.471100373514915 57.80923997616073 0 0 1
2097 15 17 -0.46 -35.318982597815285 -7.160806808884836 51.23935975851244 1 0 0
1521 15 17 -0.46 -27.189596574405233 -5.937429292793579 56.407653440296826 1 0 0
1519 15 15 0 -26.979755122454748 -5.769673670020033 57.80146784187965 1 0 0
7079 15 16 0.46 -27.426905057035896 -6.034264001658192 54.72310547919838 0 0 1
3472 15 15 0 -26.945031065660093 -10.920895292457995 56.28617292245779 0 0 0
7078 15 15 0 -27.622048922610293 -6.171153921521138 53.323641777978295 0 0 1
3474 15 17 -0.46 -27.8654565573826 -10.981581937019998 57.36517782163936 0 0 0
3473 15 16 0.46 -25.702728963964365 -10.242499709298446 56.181692887534886 0 0 0
4865 15 16 0.46 -25.8606778070584 -11.093228088707777 51.5257208657873 0 0 0
6963 15 17 -0.46 -24.19788206086438 -9.40762096137235 56.018960705774134 0 0 1
4864 15 15 0 -25.00942007116768 -9.97138566687874 51.44796534038525 0 0 0
6961 15 15 0 -22.957216461961266 -8.726675925979071 55.9163601149729 0 0 1
7080 15 17 -0.46 -28.57328434223846 -5.416728943502481 52.58999271500201 0 0 1
4044 15 17 -0.46 -20.084624835379184 -12.108612754756672 51.78793265768893 0 1 1
4042 15 15 0 -19.477510078895033 -11.554734870073112 52.9436905407998 0 1 1
4043 15 16 0.46 -20.55885759677716 -12.09175700864084 53.68194343056756 0 1 1
6962 15 16 0.46 -21.66539888252165 -8.182032566018181 55.70501679677983 0 0 1
6816 15 17 -0.46 -20.030217893632454 -7.519700524279879 55.403971531800195 0 0 0
6814 15 15 0 -18.7470139844785 -6.972014353855397 55.15070905716787 0 0 0
2214 15 17 -0.46 -15.779402887362327 -6.072714503488053 56.13197345651255 0 0 0
6815 15 16 0.46 -17.47527083285125 -6.595125235780744 55.646408089586764 0 0 0
4136 15 16 0.46 -15.635520688147993 -5.705617092708031 51.217570384456984 0 0 0
2212 15 15 0 -14.449342336467137 -5.628045390304582 56.32936685870664 0 0 0
2377 15 15 0 -12.960160045528374 -11.5501399542097 55.567162733203844 0 0 0
2378 15 16 0.46 -11.550115004089857 -11.695922348841378 55.58171436484505 0 0 0
1304 15 16 0.46 -9.161291200980113 -7.15329723197314 52.741656484345974 0 0 1
342 15 17 -0.46 -8.40215678734118 -8.483987225934563 51.79198600104871 0 0 1
3513 15 17 -0.46 -9.786111626368026 -11.852537631882521 55.555676264420136 0 1 1
3511 15 15 0 -8.38348501584808 -12.056324829707725 55.593113187983235 0 1 1
1303 15 15 0 -9.812471908520866 -6.181328341955223 53.53988468022923 0 0 1
4938 15 17 -0.46 -10.001945912146114 -7.057904728038973 58.33011849300062 0 0 0
4936 15 15 0 -10.307683262400051 -8.436356848239974 58.470869433310085 0 0 0
341 15 16 0.46 -8.303413651668007 -10.74450846084443 51.181040032760436 0 0 1
3512 15 16 0.46 -7.162262365072194 -12.209769568373853 54.88695413328041 0 1 1
340 15 15 0 -7.738061162347828 -9.469199340705037 51.02224102789823 0 0 1
5959 15 15 0 -5.7954215331782875 -7.922809501219925 56.52755502360273 0 0 0
2826 15 17 -0.46 -5.738819434619212 -12.411558140253335 53.975259096592616 0 0 0
5960 15 16 0.46 -5.649522084830419 -7.3460167721542575 57.81443485837437 0 0 0
3604 15 15 0 -3.1912209039676753 -7.658004441933817 52.281230423049784 0 0 1
3606 15 17 -0.46 -2.4909525993657007 -7.2856918483125 53.45567784519996 0 0 1
1458 15 17 -0.46 -1.1907017892966085 -11.426047345702703 56.21523980400721 0 0 0
1285 15 15 0 0.48514424651991944 -11.375534752737003 53.48929781865538 0 0 1
1286 15 16 0.46 -0.3144804352573584 -11.457860622470326 54.656037887244516 0 0 1
1456 15 15 0 -1.7574215370411737 -11.407665855804812 57.513966868103665 0 0 0
1457 15 16 0.46 -0.5936686341514643 -11.365629491927013 58.31816953257524 0 0 0
5961 15 17 -0.46 -5.611552147768459 -6.655185382732615 55.920946449100654 0 0 0
4448 15 16 0.46 -1.7313186233456423 -6.75397766545364 55.006189042037406 0 0 0
4447 15 15 0 -1.0701082599665155 -6.3721840891013715 56.200494343285186 0 0 0
3605 15 16 0.46 -2.9532806418723476 -8.606175911623394 51.25348167687192 0 0 1
1184 15 16 0.46 6.046769372724749 -12.155016705693157 53.88686763548679 0 0 1
1287 15 17 -0.46 1.434476067217896 -10.399612329505963 53.893745704335664 0 0 1
7133 15 16 0.46 2.5373446246247067 -9.256116505195978 54.443224295977714 0 0 1
2010 15 17 -0.46 6.685979799063216 -10.8912405468757 52.86132303045225 0 1 1
7134 15 17 -0.46 3.5237250162237013 -7.778239740078743 56.26850328451895 0 0 1
7132 15 15 0 3.459433515115021 -8.304014347145532 54.95491400666079 0 0 1
1478 15 16 0.46 6.489841412817512 -8.694510674027907 56.695664884959015 -1 0 1
1477 15 15 0 7.707540945770671 -9.136308953876247 57.238493371748106 -1 0 1
1479 15 17 -0.46 7.500636948449918 -10.283852657531998 58.04433585041766 -1 0 1
6335 15 16 0.46 3.198924062066737 -7.0209515224117585 57.87648078692934 0 0 1
2008 15 15 0 7.174577508926369 -9.963306708142742 51.9065191452953 0 1 1
2009 15 16 0.46 8.455184821789773 -9.862626549795959 51.30487767437457 0 1 1
2713 15 15 0 1.1219723618156738 -5.522851990613093 51.39160490057118 0 0 1
6793 15 15 0 15.455009729948136 -12.494601832919157 55.88667727628274 0 0 1
6795 15 17 -0.46 14.117220619196614 -12.27257649815211 55.47137040445346 0 0 1
4855 15 15 0 11.107896546035134 -11.85698156037862 54.636153092470735 0 0 1
4856 15 16 0.46 12.466530415030991 -12.034510216121346 55.003261656409705 0 0 1
6794 15 16 0.46 16.2313121548414 -11.434053723688137 55.357339081261536 0 0 1
5197 15 15 0 10.295636677770299 -6.3837034006090505 53.71040043030271 0 0 1
6087 15 17 -0.46 14.578308269626335 -6.598255019184859 57.32715281714273 0 0 0
6085 15 15 0 13.887017086735321 -7.39483998233781 56.38150389668216 0 0 0
6086 15 16 0.46 12.773332981382072 -7.076381019710924 55.565406972150654 0 0 0
5198 15 16 0.46 10.387312353132204 -5.832157858836781 52.417295199778316 0 0 1
5199 15 17 -0.46 11.417508110094001 -6.694925056681455 54.5180852718031 0 0 1
2744 15 16 0.46 15.53813160919984 -5.652825656781145 58.52623434505148 0 0 1
7334 15 16 0.46 -38.976621351341414 -5.277786772090769 55.906820750568095 0 0 0
5530 15 15 0 -44.14523376054218 -4.021968336969998 54.458759554498094 1 0 0
5532 15 17 -0.46 -43.14479704482489 -3.0454109438665125 54.69968086219358 1 0 0
2781 15 17 -0.46 -40.09949333625187 -0.40242897349290474 54.268379319495374 0 0 1
2779 15 15 0 -40.90300549445693 -0.9258640855422741 55.31425856343327 0 0 1
2780 15 16 0.46 -41.91230037575762 -1.8872561926955007 55.04930855080625 0 0 1
2846 15 16 0.46 -39.11652764011696 0.18700932225696368 52.97210356361145 1 0 1
2845 15 15 0 -38.296332797113536 0.6908476561134801 51.93009875828283 1 0 1
3030 15 17 -0.46 -37.68363473884953 -4.436318418530237 55.0139619781862 0 0 0
5531 15 16 0.46 -44.66874610502599 -4.636680844223798 53.29512002618657 1 0 0
478 15 15 0 -45.021220700791154 1.6841849654242416 54.203871829202534 0 0 0
6822 15 17 -0.46 -41.05434903534983 -4.552170069567977 51.05353846061208 0 0 1
3165 15 17 -0.46 -37.14637139203901 0.28908055983713615 58.493489454194645 0 0 0
3029 15 16 0.46 -35.82854135603024 -2.6040216576633437 54.39619188423177 0 0 0
3028 15 15 0 -36.660647942580965 -3.750613239313062 54.31128601295122 0 0 0
5954 15 16 0.46 -34.180330688331736 1.3002521245567764 54.099896875818544 0 0 1
5953 15 15 0 -33.98979596288443 -0.0637534694642634 54.44214032444226 0 0 1
5955 15 17 -0.46 -34.84615886148522 -1.194485516596112 54.391806167825045 0 0 1
7526 15 16 0.46 -32.20577876503364 -2.244963615481318 58.12451716346457 0 0 0
5622 15 17 -0.46 -32.084855180916264 -3.535947395475986 56.925755897324954 1 0 0
5620 15 15 0 -31.836231064707896 -4.435371013861605 55.859397912889015 1 0 0
5621 15 16 0.46 -30.755134239920277 -3.5948367578421525 55.48901329833579 1 0 0
430 15 15 0 -30.2702061709071 1.43298111306312 51.06102652232902 0 0 0
6983 15 16 0.46 -29.698569722671788 -4.456899502852683 51.6534757208906 0 0 1
4551 15 17 -0.46 -29.512019922995258 -2.4621288864844995 55.19061847880029 0 0 0
3907 15 15 0 -22.706357069996102 -5.262455998944051 52.10671165330143 0 0 0
6345 15 17 -0.46 -26.733985123356177 -1.3698240746444459 52.44825096659663 0 0 0
4549 15 15 0 -28.489922435090882 -1.4961243218805496 55.00452532076365 0 0 0
4550 15 16 0.46 -27.712003781206896 -1.444429107147503 53.81789173054153 0 0 0
3908 15 16 0.46 -22.65748630504214 -4.699235843861732 53.40753943986687 0 0 0
2787 15 17 -0.46 -22.64222188166948 -4.096058983841838 55.04161689965354 0 0 0
2785 15 15 0 -22.598003437016953 -3.5520318755207714 56.350882395875985 0 0 0
6454 15 15 0 -23.106908331298104 1.3480150956087569 55.44836647560473 0 0 0
6343 15 15 0 -25.9699054329393 -1.3321393839719913 51.25215484872388 0 0 0
6344 15 16 0.46 -24.672587026033824 -0.783206327362054 51.069202791529975 0 0 0
2786 15 16 0.46 -21.329796377499353 -3.3380036361873158 56.94515954135272 0 0 0
4538 15 16 0.46 -17.87220511650129 -1.2740789108859902 53.865924810476336 0 0 0
4537 15 15 0 -18.86035561815043 -2.040523482572406 53.194615747188195 0 0 0
4539 15 17 -0.46 -19.762936306987548 -1.3052581310889895 52.384599525018366 0 0 0
6279 15 17 -0.46 -19.73184479159436 -3.1290598956160998 57.74185048632653 0 0 0
5462 15 16 0.46 -20.88019840089238 -0.3656312927657546 51.45724513549699 0 0 1
4137 15 17 -0.46 -14.544963540809496 -4.9760038417330215 53.2029906861822 0 0 0
1971 15 17 -0.46 -16.66735479534033 -0.3767760166747569 54.66934168184942 0 0 1
4135 15 15 0 -14.728015112250883 -4.792139587177766 51.81023325168259 0 0 0
1969 15 15 0 -15.678336875140218 0.41058499684235433 55.31382839362723 0 0 1
1970 15 16 0.46 -14.90037431883025 -0.0959421193984993 56.38357054604863 0 0 1
6277 15 15 0 -18.491677797186053 -2.9104206648911033 58.39132915642777 0 0 0
5918 15 16 0.46 -9.60229789043495 -5.406771613291549 58.23970521823288 0 0 1
2213 15 16 0.46 -14.361497022552483 -5.298138556649854 54.9546374036393 0 0 0
5456 15 16 0.46 -10.860691525821276 -3.1978829098671158 53.99852873864439 0 0 0
5455 15 15 0 -11.362971766747322 -1.8876585725950141 54.20161924383553 0 0 0
5457 15 17 -0.46 -11.241577017094121 -0.5446080864254437 54.63734532334478 0 0 0
2417 15 16 0.46 -11.103779736937392 1.176146973772742 55.22485670950487 0 0 1
3351 15 17 -0.46 -13.950994515468683 -0.6814409905598443 57.807497167722175 0 0 0
1305 15 17 -0.46 -10.272349037327682 -4.856035657281454 53.7457618658962 0 0 1
6931 15 15 0 -7.3556618927858946 0.26780434556373317 52.46655767868167 0 0 0
5919 15 17 -0.46 -8.604952424132398 -2.7913205078504753 57.9917687287172 0 0 1
2186 15 16 0.46 -7.851522563402761 -1.2913399139076647 57.82142706901566 0 0 0
2185 15 15 0 -7.217178540095198 -0.03171553080704203 57.65667970723336 0 0 0
5917 15 15 0 -9.280345610671018 -4.026216624406087 58.176333360552945 0 0 1
6932 15 16 0.46 -7.070059397271063 -0.976210366775851 51.84986444899287 0 0 0
6933 15 17 -0.46 -6.940546786339305 1.3966773548479663 53.217356917500545 0 0 0
2187 15 17 -0.46 -7.5551512337674716 1.1129986226699147 58.423688672635045 0 0 0
2582 15 16 0.46 -5.312407989913159 -5.0017323755972125 55.37078793284535 0 0 0
2581 15 15 0 -5.116350449785014 -3.64396718012692 55.01546027796368 0 0 0
4449 15 17 -0.46 -1.2243195745315727 -5.14121389484257 56.88537044689257 0 0 0
2583 15 17 -0.46 -4.189070127322866 -2.6212817080217583 54.69341164640344 0 0 0
947 15 16 0.46 -3.083336323528523 -1.3021469328595825 54.19322351601977 0 0 0
948 15 17 -0.46 -2.57013088479794 0.7403436087883308 52.88231265545961 0 0 0
946 15 15 0 -2.2052871763308817 -0.2501394664484558 53.82933960786035 0 0 0
6641 15 16 0.46 -1.459894825774468 -3.5675768878291 57.753508973773556 0 0 0
4760 15 16 0.46 -2.3472395178533567 0.8170967490365468 58.44640172085174 0 0 0
6642 15 17 -0.46 -1.9417521129925752 -0.9740131797674194 58.42050213592871 0 0 0
6640 15 15 0 -1.6225103139558055 -2.353913826690467 58.466811987496115 0 0 0
3403 15 15 0 5.693956542298835 -5.079551816177026 51.65191187077212 0 0 1