LAMMPS data file via write_data, version 31 Aug 2021, timestep = 0

321 atoms
32 atom types
466 bonds
138 bond types
355 angles
66 angle types
10 dihedrals
10 dihedral types
51 impropers
17 improper types

-100 100 xlo xhi
-50 125 ylo yhi
0 200 zlo zhi

Masses

1 72
2 72
3 72
4 72
5 72
6 72
7 72
8 72
9 72
10 72
11 45
12 45
13 45
14 45
15 24
16 24
17 24
18 72
19 72
20 72
21 45
22 45
23 45
24 45
25 45
26 45
27 45
28 45
29 45
30 45
31 45
32 45

Atoms # full

192 1 6 0 -17.75291460800237 -8.305110000000003 70.84150361961909 0 0 0
197 1 2 0 -10.870109511381516 -8.019840000000002 70.24022933650866 0 0 0
149 1 6 0 -23.771253401198024 -2.48426 69.98212708961832 0 0 0
194 1 9 -1 -18.642444775739406 -3.41561 71.02199664077425 0 0 0
203 1 14 0 -14.873901522105381 -1.1560800000000002 67.76869082477884 0 0 0
193 2 8 0 -15.32527636266338 -3.9701200000000005 70.94882505208926 0 0 0
191 2 8 0 -15.575638246629008 -7.165210000000001 70.88749163006521 0 0 0
199 1 6 0 -13.597811910485662 -4.57763 67.15109896989715 0 0 0
200 2 8 0 -10.622994679545402 -1.04833 69.56659871407037 0 0 0
198 2 8 0 -11.535288909627676 -3.79131 67.48660990836525 0 0 0
196 2 8 0 -10.569696554813511 -5.61794 70.13696230582572 0 0 0
205 1 6 0 -6.637857480632244 -2.6810099999999997 70.22715276896565 0 0 0
141 1 6 0 -24.423222045702396 0.867483 64.39964608699206 0 0 0
140 2 8 0 -22.90812036743475 0.30354800000000015 66.34373628927449 0 0 0
138 2 7 0 -22.379326714892706 3.44639 67.8411903997671 0 0 0
136 2 8 0 -23.839104270668944 5.26386 70.00459995129727 0 0 0
106 1 10 1 -16.741357126639034 5.18687 64.66368401866781 0 0 0
143 1 9 -1 -18.341380253102628 1.0431099999999995 65.21703569561626 0 0 0
146 1 12 0 -16.37119150678072 2.3373999999999997 68.62198698988854 0 0 0
145 1 12 0 -17.705277907493016 1.7638600000000002 70.41341134596236 0 0 0
139 1 3 0 -20.663769575038167 4.78443 67.62499245830112 0 0 0
144 2 8 0 -20.498103008984103 0.5551579999999996 70.23238805331387 0 0 0
142 2 8 0 -19.66163028989013 -0.5472789999999996 67.06181459726345 0 0 0
110 1 1 0 -16.01560750276896 5.58274 70.88474331209625 0 0 0
147 1 12 0 -15.010986823224991 1.8834999999999997 70.13161798047301 0 0 0
101 1 3 0 -8.738325673017428 5.38493 65.48548561185697 0 0 0
102 1 10 1 -7.203063037342093 2.62986 65.2707206668235 0 0 0
202 1 14 0 -14.13064115163148 -0.1299929999999998 66.5570819959141 0 0 0
204 2 8 0 -7.681848039334492 -0.33825899999999987 69.73681311908958 0 0 0
99 1 12 0 -9.422840273346415 2.89512 68.84035270796696 0 0 0
98 1 12 0 -11.161329518011861 3.42729 67.84575010080036 0 0 0
97 1 12 0 -11.067577004856322 4.91676 69.58399020972578 0 0 0
201 1 11 0 -12.856198354056886 -0.372001 68.59690694394524 0 0 0
131 1 10 1 -30.532741610692568 11.4028 70.99067848784567 0 0 0
135 1 6 0 -25.96871625077368 9.53282 71.11747582227048 0 0 0
105 1 5 0 -15.11658418044334 7.98097 65.1415454163665 0 0 0
107 2 8 0 -17.606671585067772 9.59037 68.97495015886771 0 0 0
108 1 9 -1 -17.558235789638115 12.8343 69.62781097575068 0 0 0
109 2 8 0 -18.245432212151293 6.5591 70.97204962531596 0 0 0
104 2 8 0 -14.53260193572437 9.93919 67.47803161068758 0 0 0
103 2 8 0 -12.134288946931054 10.8894 65.36820380485004 0 0 0
100 2 8 0 -10.226092534360882 8.15834 65.8173613646821 0 0 0
96 2 8 0 -11.81785086145198 7.51515 68.57174495870748 0 0 0
95 1 10 1 -13.219085005827347 15.535999999999998 71.40919894577699 0 0 0
316 4 20 -1 -10.760491203753617 46.690890715201625 71.121 0 0 0
319 3 27 0 -6.350081203753617 45.58139071520162 70.5471 0 0 0
321 3 30 0 -6.298401203753618 42.88169071520162 70.4163 0 0 0
320 3 29 0 -4.1809612037536175 45.274390715201626 70.8746 0 0 0
318 4 21 0 -6.905391203753617 48.180390715201625 70.3006 0 0 0
189 1 3 0 -14.63137987119821 -10.247800000000002 75.26168060441562 0 0 0
190 1 10 1 -15.485707372778684 -13.0259 76.38195031303194 0 0 0
34 1 12 0 -12.477216106837968 -11.234300000000001 72.10829504018194 0 0 0
33 1 12 0 -12.410013848666058 -13.215900000000001 72.73819976035524 0 0 0
32 1 12 0 -10.615823663229232 -12.2534 73.83264791873562 0 0 0
29 2 8 0 -8.020775858044052 -9.90032 77.5217141838498 0 0 0
31 2 8 0 -10.276022732828517 -12.529 76.58253636007261 0 0 0
252 1 11 0 -5.049916257005444 -9.701820000000001 71.78811911107768 0 0 0
253 1 14 0 -6.53438463947389 -11.192500000000003 72.81556296212334 0 0 0
257 2 9 -1 -2.0108260325274525 -12.181000000000001 76.03556643198495 0 0 0
254 2 8 0 -3.0396633203993098 -8.943270000000002 75.78927405474913 0 0 0
258 1 2 0 -1.961192893560595 -13.218900000000001 73.62379657637759 0 0 0
255 1 5 0 -0.22489392331892688 -8.119120000000002 76.74256497328328 0 0 0
256 1 10 1 3.421902441017286 -8.675610000000002 76.031446197013 0 0 0
150 2 8 0 -21.874518511613914 -1.5159399999999996 74.67703345808131 0 0 0
151 1 6 0 -20.555719601434085 -3.290919999999999 74.25174951233625 0 0 0
187 1 9 -1 -19.268794522507662 -6.490280000000001 73.91538316260697 0 0 0
184 2 8 0 -17.15574947138617 -2.87723 77.43944943779691 0 0 0
186 2 8 0 -17.057911234313526 -5.33021 75.36943845247183 0 0 0
188 2 8 0 -14.70239591642919 -7.488120000000001 73.95297053288726 0 0 0
195 2 7 0 -12.426000529254681 -3.922530000000001 72.4865390569394 0 0 0
27 1 12 0 -8.114655408648378 -4.67875 75.54699713321234 0 0 0
43 1 2 0 -12.239286550553246 -3.96708 77.88757367065531 0 0 0
26 1 12 0 -8.763435396085082 -6.2563 77.10611791888023 0 0 0
28 1 12 0 -9.286375827812192 -6.00349 74.44665808559355 0 0 0
251 1 11 0 -5.949599583184176 -7.82041 72.81800059216955 0 0 0
25 2 8 0 -6.26858723059112 -6.984000000000001 77.94190463331843 0 0 0
248 1 3 0 -1.7673500019836776 -1.6649199999999995 75.69353408461025 0 0 0
247 2 8 0 -4.715578227711299 -3.1366900000000006 75.37217774746573 0 0 0
250 2 8 0 -3.7988520982181946 -6.133110000000001 73.74457492724066 0 0 0
137 1 2 0 -23.012671985966204 3.8355 72.0247382729973 0 0 0
148 2 8 0 -23.174705742229783 -0.8758780000000002 71.59794966978592 0 0 0
152 2 7 0 -21.041811365486538 1.4386799999999997 75.2286051295696 0 0 0
180 1 1 0 -16.269016890108837 3.97941 77.36184190400513 0 0 0
185 1 4 0 -15.435139512716093 -0.7214520000000002 74.74773846889155 0 0 0
212 1 14 0 -11.916398246629734 2.30419 72.39116784564663 0 0 0
211 1 11 0 -9.926650952932409 3.07198 73.31548421449669 0 0 0
210 1 11 0 -10.859516850963452 5.03108 74.09831169637934 0 0 0
47 1 1 0 -11.243117824885049 2.79532 78.11718057386295 0 0 0
246 1 1 0 -8.796419128803663 -0.6815090000000001 75.36632983572872 0 0 0
206 2 8 0 -6.168174259393712 2.3337200000000005 71.66883578200527 0 0 0
207 2 8 0 -6.793942333803447 5.71678 71.90389672527219 0 0 0
244 1 9 -1 -1.4448803403935564 2.6792799999999994 73.98340345540265 0 0 0
243 2 8 0 -4.53130256852752 2.98934 76.50302000783292 0 0 0
245 2 8 0 -5.7607595729376015 0.30669199999999996 74.70478357031783 0 0 0
249 1 10 1 0.9725748316725831 -0.21546399999999988 76.26151765656788 0 0 0
130 1 3 0 -29.741559497980802 11.6662 74.07728291091725 0 0 0
134 2 8 0 -24.416879383351358 7.80572 72.54288577625174 0 0 0
129 2 8 0 -28.257508196185796 11.2037 76.73143092367775 0 0 0
115 2 8 0 -22.239698906613818 10.0369 74.93350914719768 0 0 0
117 2 8 0 -23.237265412803573 12.4923 77.62663991374586 0 0 0
114 1 14 0 -22.979143495715377 6.93282 77.89408500328521 0 0 0
116 1 6 0 -22.078834400443107 11.6711 73.04288907413846 0 0 0
132 2 8 0 -27.17299109476336 8.41864 75.0385000341485 0 0 0
133 1 6 0 -26.044898641010384 7.3097 77.33294497700192 0 0 0
112 1 11 0 -20.669077258143304 6.45407 75.402583562782 0 0 0
111 2 8 0 -19.316571461292483 8.42036 73.43457715794361 0 0 0
90 1 13 0 -15.673111587736198 7.67577 78.49358263429815 0 0 0
113 1 11 0 -20.924758267666874 7.87007 77.23397120644705 0 0 0
88 2 8 0 -15.647827098673806 9.57983 73.80334082447503 0 0 0
85 2 8 0 -16.53763204580143 12.2294 76.01040957194694 0 0 0
89 1 11 0 -15.127450263310825 7.80239 76.46652060046043 0 0 0
94 1 3 0 -13.00817062168353 12.374 71.51389661987356 0 0 0
93 2 8 0 -12.570738940186711 9.0714 71.95833445188482 0 0 0
213 2 8 0 -10.889996204795665 10.1342 75.0743988389491 0 0 0
91 1 12 0 -12.488467841022878 7.0676 77.48272059300876 0 0 0
214 1 6 0 -9.259428746254994 11.9617 73.96877879989941 0 0 0
215 2 8 0 -11.588842409922067 11.9452 78.04130889732302 0 0 0
209 2 8 0 -8.539448000257135 7.38137 74.51469581721284 0 0 0
208 1 8 0 -3.53843973622147 6.50073 72.51143420785 0 0 0
239 2 8 0 -5.491287901830548 9.60351 78.10602993913187 0 0 0
241 2 8 0 -6.031343180236151 6.15476 76.96237825073796 0 0 0
240 1 1 0 -4.915679461560339 10.8625 75.2389192981573 0 0 0
126 1 1 0 -31.23492623947527 16.7918 75.6694285246719 0 0 0
125 2 8 0 -31.23121056321431 15.006699999999999 78.41690780644089 0 0 0
121 2 8 0 -26.210720597127306 14.2118 78.13650290202634 0 0 0
82 1 14 0 -23.22586665601132 16.3023 74.48905443628973 0 0 0
80 1 11 0 -22.05157285359423 17.2423 77.53198445940968 0 0 0
122 1 9 -1 -26.95981856471331 16.6277 76.35073485019024 0 0 0
87 1 10 1 -18.106065828517842 16.9998 72.02387473963532 0 0 0
81 1 11 0 -21.23912092827251 16.0998 75.69123266488631 0 0 0
83 2 8 0 -19.59631307079023 13.2437 77.82975922151226 0 0 0
218 1 9 -1 -14.56658420842129 16.918 75.43721285810508 0 0 0
217 2 8 0 -14.356852729314042 14.2188 78.24828757192388 0 0 0
86 1 3 0 -17.543621430539094 14.4504 73.7184547168516 0 0 0
236 1 9 -1 -8.616820816093508 16.4042 75.71096621464376 0 0 0
233 1 9 -1 -13.018543950854047 22.4061 77.60655551452226 0 0 0
304 4 20 -1 -11.595691203753617 36.964190715201624 77.6029 0 0 0
307 3 27 0 -8.513951203753617 40.25779071520162 76.8051 0 0 0
305 4 22 0 -11.451191203753618 40.56679071520163 77.7936 0 0 0
306 4 21 0 -10.994991203753617 40.79369071520163 75.9755 0 0 0
309 3 32 0 -5.962071203753617 39.660290715201626 77.3617 0 0 0
315 3 30 0 -6.698821203753617 40.72269071520162 73.7446 0 0 0
310 4 20 -1 -12.529791203753618 41.69649071520163 73.993 0 0 0
313 3 27 0 -8.164241203753617 42.98889071520163 73.4805 0 0 0
312 4 21 0 -9.978111203753617 44.84809071520162 72.8716 0 0 0
311 4 22 0 -10.530791203753617 44.62509071520162 74.6637 0 0 0
308 3 31 0 -7.286421203753617 42.088390715201626 76.9438 0 0 0
314 3 29 0 -6.171391203753617 43.90889071520162 73.798 0 0 0
317 4 22 0 -7.5335312037536175 48.02039071520162 72.0743 0 0 0
38 2 8 0 -15.85238410480717 -9.311140000000002 79.13675857027759 0 0 0
39 1 9 -1 -16.653101487738812 -12.459700000000002 80.06117975278647 0 0 0
35 2 8 0 -11.297857972134665 -12.7666 79.68026603738666 0 0 0
36 2 8 0 -12.542264985348794 -10.032400000000003 79.31687138213773 0 0 0
37 1 8 0 -10.0949464606628 -8.28395 80.63750647508685 0 0 0
30 1 6 0 -6.393290465750278 -11.536100000000001 78.82184459606636 0 0 0
155 1 10 1 -23.689460905025896 -1.7746900000000005 81.19389466870993 0 0 0
41 1 6 0 -17.79165145121986 -5.763000000000001 81.20343859852035 0 0 0
40 2 8 0 -15.28059346370217 -6.493470000000001 80.5010028126128 0 0 0
42 2 8 0 -14.178896419262033 -3.2450599999999996 79.6061467000048 0 0 0
23 2 8 0 -5.1934024776293 -4.088309999999999 79.98175318421588 0 0 0
24 1 9 -1 -1.0208630267193612 -4.86986 79.6304593228972 0 0 0
154 1 3 0 -22.90121621146752 0.8696609999999998 79.61804008053339 0 0 0
158 2 8 0 -22.087485274337332 5.20544 85.19809852574319 0 0 0
156 2 8 0 -21.89365106957641 4.41067 81.65673286387421 0 0 0
153 2 8 0 -20.726744921424775 2.72325 78.78561239071293 0 0 0
181 2 8 0 -17.783971534326227 0.3786389999999997 79.11637102202062 0 0 0
183 1 10 1 -19.71232208775175 -0.5939069999999997 85.23882219316958 0 0 0
179 2 8 0 -15.623510906183705 2.87948 80.48850210695602 0 0 0
182 1 3 0 -18.4825575869638 -0.49651900000000015 82.30251615792704 0 0 0
177 2 8 0 -16.00649825797673 5.38143 82.94236383459402 0 0 0
48 2 7 0 -10.496297333229883 5.13027 82.87015601701896 0 0 0
49 1 3 0 -9.136118695336535 3.5957 83.59251365214065 0 0 0
46 2 8 0 -12.015482827747848 2.82845 81.11528263889555 0 0 0
178 1 6 0 -14.10274584098202 4.64721 84.83374586495879 0 0 0
44 2 8 0 -12.192959753113179 -0.7392640000000004 81.38160147218166 0 0 0
45 1 2 0 -13.864006647824532 -0.7120959999999998 83.47991880892448 0 0 0
21 2 8 0 -4.633498718998949 -0.5183660000000003 79.59047087747098 0 0 0
20 1 6 0 -0.9540198087865175 1.9146999999999998 79.33668571990268 0 0 0
22 1 2 0 -6.586403324178933 0.3030400000000002 81.23560397502473 0 0 0
19 2 8 0 -2.7600718167969784 2.3700900000000003 80.6852217176652 0 0 0
16 2 8 0 -1.994045195215774 5.64234 80.37840464263695 0 0 0
15 1 6 0 -4.954842695337607 4.87285 84.56348665991837 0 0 0
127 2 8 0 -30.33995958326611 12.0754 79.24793076084191 0 0 0
128 1 8 0 -30.815366538978687 11.1516 81.97847240609475 0 0 0
118 1 12 0 -24.41991839401385 10.8435 79.6467127282836 0 0 0
120 1 12 0 -26.523468990512256 11.1486 81.34071875187715 0 0 0
119 1 12 0 -24.74998922968144 12.2175 81.48762054874656 0 0 0
161 1 2 0 -25.679690015559153 8.44357 84.30258929790496 0 0 0
84 1 2 0 -18.947354366766515 11.8917 80.04569340159792 0 0 0
167 1 1 0 -21.198331017393947 11.5911 85.1402918880667 0 0 0
157 1 1 0 -20.61314437263919 7.05635 81.35725844243069 0 0 0
176 2 7 0 -16.202445072954735 8.54071 83.44534509239591 0 0 0
92 1 12 0 -13.012168587950686 6.9247 79.54408908448895 0 0 0
237 2 8 0 -7.941383858769097 12.3203 78.72362894511664 0 0 0
242 1 1 0 -7.435141334928854 6.00407 79.44453292419837 0 0 0
51 1 4 0 -12.218222381912303 9.95211 82.39088498021404 0 0 0
50 2 8 0 -12.157268876702261 8.08729 84.64744398236812 0 0 0
216 1 4 0 -12.931284509618186 10.597 80.23897455409693 0 0 0
238 1 6 0 -7.07332946132701 11.8042 81.13985463057764 0 0 0
12 1 3 0 -4.027048093147977 12.1032 83.95492644420608 0 0 0
14 2 8 0 -3.9483581754001182 6.78371 82.95420650993634 0 0 0
18 1 10 1 3.223795109647318 7.69549 78.89221009243629 0 0 0
17 1 3 0 1.0602708868885298 6.2376 80.22700139729858 0 0 0
124 2 7 0 -29.704949972305023 17.89 80.00230483514923 0 0 0
74 1 6 0 -29.306988355464092 18.9011 84.87656888231793 0 0 0
73 2 8 0 -27.070705823557876 18.5471 83.82209988917916 0 0 0
123 2 8 0 -27.441266648351665 15.704999999999998 80.9673466730275 0 0 0
77 2 8 0 -22.979880456477424 17.295 82.35568887038153 0 0 0
75 2 8 0 -23.971736723112073 19.7877 84.05826909649059 0 0 0
71 2 8 0 -26.111272076563765 16.0862 85.67816096983594 0 0 0
78 1 2 0 -21.40952881688535 16.1722 84.36506599228537 0 0 0
221 2 8 0 -18.05360921280612 18.6882 81.64612445908597 0 0 0
219 2 8 0 -15.118835212269898 16.8271 80.55688078764389 0 0 0
79 2 8 0 -20.346103185986347 16.1102 80.06299544572909 0 0 0
220 1 2 0 -15.58482717466697 14.951699999999999 82.4851536887088 0 0 0
235 2 8 0 -8.781522573888017 15.856099999999998 79.54329303445955 0 0 0
1 2 10 1 -10.423735691387575 19.7629 84.79474715752988 0 0 0
7 1 12 0 -9.56850842628005 15.6616 83.20686987794663 0 0 0
6 1 12 0 -8.997782811743512 13.6891 84.24487783211265 0 0 0
8 1 12 0 -11.15856768515423 14.4222 82.78506764553377 0 0 0
2 1 1 0 -13.851556734323026 19.3654 84.9793307635433 0 0 0
234 2 8 0 -11.502644957467005 18.1941 80.31034800875109 0 0 0
13 1 10 1 -2.488592957966153 14.3353 82.71926977383495 0 0 0
226 1 1 0 -22.299313186733457 24.7293 85.47452179815328 0 0 0
222 1 6 0 -17.768326264363683 20.0074 79.28350750974187 0 0 0
227 2 8 0 -17.453035405405373 25.4975 81.79515332160655 0 0 0
223 2 8 0 -18.724945249805284 21.57 83.89580840698315 0 0 0
225 2 8 0 -20.380265187296835 23.6686 82.55529523862448 0 0 0
229 2 8 0 -15.716114529191277 23.359 82.66299035686814 0 0 0
232 2 8 0 -12.723973516789037 21.5938 81.33685213937325 0 0 0
228 1 6 0 -18.34295379405594 27.8893 81.51476417855426 0 0 0
297 4 20 -1 -8.533301203753616 33.956890715201624 81.8401 0 0 0
291 4 22 0 -7.711091203753617 35.26739071520162 85.6461 0 0 0
292 4 21 0 -7.393831203753617 35.36989071520163 83.7868 0 0 0
300 3 27 0 -7.7691512037536175 39.267490715201625 80.3644 0 0 0
299 4 21 0 -9.928341203753618 37.276090715201626 79.6583 0 0 0
298 4 22 0 -10.296491203753618 37.08569071520162 81.5013 0 0 0
294 3 23 0 -7.800861203753617 40.193690715201626 83.6276 0 0 0
293 3 27 0 -6.618161203753617 38.276490715201625 84.1473 0 0 0
296 3 28 0 -5.104591203753618 38.603990715201626 84.6178 0 0 0
303 3 28 0 -6.291221203753618 38.71639071520163 80.7983 0 0 0
301 3 25 0 -7.8691412037536175 42.22419071520162 80.0963 0 0 0
295 3 24 0 -5.5502112037536175 41.48379071520162 84.2747 0 0 0
302 3 26 0 -5.148111203753618 41.41279071520162 80.8786 0 0 0
159 1 9 -1 -22.998914580616105 1.78221 85.79788280334323 0 0 0
163 1 6 0 -24.893730976582837 5.01514 89.41829222018762 0 0 0
165 1 7 0 -20.427178551536937 5.03258 90.7563659380061 0 0 0
55 1 12 0 -12.607442490787623 5.72136 88.86980917230389 0 0 0
160 2 8 0 -24.126248781061506 7.73825 86.20794292150411 0 0 0
162 2 8 0 -24.054727188347446 7.24485 89.42334527140927 0 0 0
174 2 8 0 -16.871799535085255 9.02553 87.18199817022183 0 0 0
173 2 8 0 -15.932159963635243 11.6229 88.60278526749055 0 0 0
170 2 8 0 -17.574483042137327 11.6583 91.60732523823805 0 0 0
166 2 8 0 -20.380010610993168 11.0316 88.0046917139409 0 0 0
175 1 9 -1 -16.067567904590742 6.1571 87.84361730878432 0 0 0
164 2 8 0 -20.72596315384436 8.13777 89.32693716698462 0 0 0
52 2 8 0 -10.837094987118892 10.7786 86.87483393279491 0 0 0
54 1 12 0 -11.020325616834118 6.13014 87.6130497727321 0 0 0
53 1 12 0 -11.48498115318881 8.17347 88.56701897167666 0 0 0
11 2 8 0 -4.038849272667262 9.17944 85.76504748219276 0 0 0
9 2 8 0 -6.624371247994434 10.6878 87.43975480142807 0 0 0
10 1 8 0 -6.102572226228565 9.4277 90.06501891592859 0 0 0
70 1 8 0 -29.08898356169466 18.3585 88.44443736082069 0 0 0
72 1 6 0 -26.635995398501354 13.7057 86.34777913372845 0 0 0
67 2 8 0 -25.261884982694674 18.2567 91.94640151920612 0 0 0
169 1 1 0 -23.442100378092256 14.0826 90.22008277608478 0 0 0
69 2 8 0 -25.978624240308328 17.7636 88.8174608076241 0 0 0
66 2 7 0 -21.585095972541634 18.5764 90.6371375180139 0 0 0
62 2 8 0 -15.749796805797272 17.9272 91.23908542655123 0 0 0
64 2 8 0 -19.041407007294858 19.9775 91.85607075165788 0 0 0
63 1 4 0 -17.20399832993305 15.964199999999998 88.01235138464428 0 0 0
168 2 8 0 -20.409260406146778 13.0034 90.67237671211505 0 0 0
57 1 2 0 -13.089883690143747 14.9939 86.67486286107807 0 0 0
3 2 8 0 -9.133504169062418 17.1983 86.84717738504031 0 0 0
60 2 8 0 -12.907495135267826 18.5104 90.78482150138703 0 0 0
58 2 8 0 -10.858491220558143 15.5643 91.2477504025202 0 0 0
61 1 8 0 -11.052214404619757 19.8214 89.52419480783895 0 0 0
59 1 6 0 -8.475721533144775 15.065099999999997 90.76732894510597 0 0 0
56 2 8 0 -12.153047978960114 13.4157 88.5550554310695 0 0 0
5 2 8 0 -6.97339937150044 14.2353 86.84226784843088 0 0 0
4 1 1 0 -6.948146295820909 19.8162 87.88211953601363 0 0 0
76 1 9 -1 -24.442962705935827 21.6778 87.60962132249013 0 0 0
230 1 5 0 -14.49048044576531 24.1967 85.72405392751554 0 0 0
231 1 10 1 -14.90406234216823 22.5633 88.58701279990049 0 0 0
224 1 9 -1 -18.804061404634272 20.4099 87.56030789450462 0 0 0
290 4 20 -1 -4.600211203753617 33.604790715201624 86.3936 0 0 0
284 4 20 -1 -1.320501203753617 35.988790715201624 90.8546 0 0 0
280 4 21 0 -2.3659112037536167 38.00899071520163 92.23 0 0 0
285 4 22 0 -4.799551203753618 35.65609071520162 89.9466 0 0 0
287 3 27 0 -4.393061203753617 38.308190715201626 88.3655 0 0 0
288 3 31 0 -6.244521203753617 39.261690715201624 87.6462 0 0 0
286 4 21 0 -4.4659412037536175 35.657890715201624 88.0886 0 0 0
281 3 27 0 -3.703811203753617 40.325690715201624 92.1159 0 0 0
289 3 32 0 -4.159791203753617 40.983290715201626 88.3964 0 0 0
282 3 31 0 -5.736061203753617 40.06639071520162 91.3106 0 0 0
283 3 32 0 -4.899751203753618 42.69779071520163 91.7516 0 0 0
171 1 3 0 -18.875599704843324 9.14765 93.200223982675 0 0 0
172 1 10 1 -20.455369932025974 6.65159 94.43683625388505 0 0 0
68 1 7 0 -23.941703662170866 18.9115 94.9947796668348 0 0 0
65 1 9 -1 -16.352198684800644 22.8859 92.91415819994741 0 0 0
279 4 22 0 -2.754761203753617 38.09939071520162 94.0759 0 0 0
275 3 23 0 -6.529931203753617 40.53789071520163 94.4889 0 0 0
278 4 20 -1 -0.012366203753616994 40.31149071520162 94.8426 0 0 0
270 3 30 0 -9.037921203753617 45.541090715201626 97.7784 0 0 0
276 3 24 0 -8.099361203753617 42.680590715201625 94.1308 0 0 0
267 4 21 0 -3.863951203753617 45.39879071520162 99.0568 0 0 0
268 3 27 0 -6.465631203753618 45.16589071520163 98.5235 0 0 0
269 3 29 0 -6.987421203753617 43.05639071520162 98.0694 0 0 0
277 3 28 0 -5.512901203753617 43.58529071520162 95.1676 0 0 0
274 3 27 0 -4.955521203753618 42.064990715201624 95.2197 0 0 0
273 4 21 0 -2.043771203753617 41.661090715201624 95.9313 0 0 0
272 4 22 0 -2.518881203753617 41.774990715201625 97.7547 0 0 0
271 4 20 -1 -1.373991203753617 45.18089071520163 98.1265 0 0 0
263 3 24 0 -10.878091203753618 42.701590715201625 100.386 0 0 0
264 3 28 0 -10.676991203753618 45.601590715201624 100.84 0 0 0
261 3 27 0 -9.102721203753617 45.47069071520163 101.209 0 0 0
262 3 23 0 -8.358631203753617 43.28089071520162 101.084 0 0 0
266 4 22 0 -4.435861203753618 45.506590715201625 100.854 0 0 0
260 4 21 0 -7.5335312037536175 48.02039071520162 101.649 0 0 0
259 4 22 0 -8.175051203753616 48.06089071520162 103.425 0 0 0
265 4 20 -1 -5.258721203753617 49.02099071520163 100.698 0 0 0

Velocities

192 0.0005955912513651228 0.0012726556004142636 -0.0002191589375282055
197 -0.0006660570214431035 -0.00420393810846862 -0.0016339239664113618
149 -0.002089400753735829 -2.694486546249995e-05 0.0018151879878991163
194 -0.003673333919349053 0.001752247083097212 -0.004042057548991637
203 0.001054964175304559 0.001508105771003597 0.001563356400113741
193 0.0009056138806531637 -0.002310478773112488 0.0009259355731457626
191 -0.0018348390493659556 -0.0015986491636597933 0.002038840750518509
199 0.0005205731954978558 -0.0022742425200429537 -0.0024175943540231106
200 -0.0016987217941400955 0.0009766539685701387 -0.0012047526901087225
198 -0.0034779416788584625 -0.0028682673290903226 0.0018188927390819843
196 -0.0018597972536215314 -0.00011636409479640648 0.0019041497695751778
205 0.0013020343544592658 -0.0010919425315362625 -0.0019159371592647368
141 0.0006555001667053033 -0.0026274922689910113 0.0006482879341631994
140 0.0009532753510378717 -0.0010382797532363752 0.0001701692770558265
138 -0.0014066322920182 -0.0004883619020538749 -0.0018424768821952882
136 -0.0014459592150513644 0.0022674906811115995 -0.001536715027919577
106 0.0015636249505368116 -0.0028434960081659775 -0.00342949701854336
143 -0.0011287229115583247 0.0036452031499164786 -0.0023257482843665163
146 -0.0021631729830000404 -0.001106812020672551 0.001923691269656683
145 -0.0016289191612499315 -0.002644558444674938 -0.0006924162107664718
139 0.0036871394880919743 -0.0038576853105653937 0.0007813511349262673
144 -0.002388993344074065 0.0003517853408901244 0.00029142534274665874
142 0.001076196805557724 -0.0013569413650516668 -0.004294874184559811
110 0.0009391346296390799 -8.644307301943206e-06 -1.1830782792603746e-05
147 -0.0010127737021524892 -0.0009647880865913864 -0.002915382472152241
101 -0.0006323529968811422 0.003955087233354366 0.0018011096813114519
102 -0.002892407378612115 -0.004084217153189649 -0.001108861237352504
202 0.0012995125567089988 0.00223726687861189 -0.001596006166544866
204 0.0008795632097354397 0.001958367949674544 -0.0012808657524303263
99 -0.00023598296877933914 6.240871008116336e-05 -0.0006244426106432533
98 0.002878043271742137 0.003459614834902374 0.0016341882700849789
97 0.0028728314855044814 0.0004318531638375468 0.0011950823788478267
201 -0.0005752096189156774 0.0003654212186198959 0.0007171572350643581
131 0.0022203801975890806 -0.0018919221988621445 -0.0016769261689783535
135 -0.00045586043866715294 0.0021160970243718938 -0.0002469740866870732
105 -0.00015892350228173364 0.0023666535087543154 -0.0025775815742584383
107 -0.0024346480503209074 -0.0006346111364057595 -0.0006091319010681952
108 -0.001448820199254141 0.0011564688330023198 -0.00046779634207173523
109 -0.002134552228642577 -0.003072759341885841 0.003075947244623777
104 1.823682110558601e-05 -0.0022587245056644462 0.0027116879003152303
103 -2.045107236142138e-05 -0.00034178114753326006 0.0007510662202357926
100 -0.0009816129219566616 -9.961907422235824e-05 0.0005835657237112403
96 0.0029637282597621472 0.0009202457063372929 0.0011823949028917614
95 0.0017596329311646032 -0.0023185778982388336 0.001822402652978442
316 -0.0014687245481595321 -0.003308094639291458 -0.0029360670256834455
319 -0.0015955705702646419 0.000670627117240465 0.0003370147297858773
321 -0.0003056114825564313 0.00044101864768586246 0.0012902535467711291
320 -0.002129718262215025 -0.001358286907014609 -0.0009073217487044709
318 -0.0006113088918460293 -0.0012212315397157243 0.0029893302462803396
189 -0.0036825162108263605 0.0012213963697673789 -0.0005805353047995782
190 -0.00035199137947693974 0.00011290335687116315 -0.001993969762660431
34 0.0010443913118136517 -0.004166069288714741 0.0002240928293720159
33 -0.0008132702047864967 0.000707604418200089 0.0011908970368546892
32 -0.0008438269085636607 0.004330044825355747 0.001359461924545485
29 0.00022658674575219806 0.003943217582454365 0.000408878220242997
31 0.0009079092699269396 0.002761631809033074 -0.004534827438901978
252 -0.003148339962199942 -0.0005408491157103412 1.4969771009186688e-05
253 0.0029467012263296346 0.002591381299345905 0.001042281323506643
257 -0.0001964762855193866 0.0009516678623908145 0.0007585297078655078
254 0.0007730644346879681 0.003281336330968386 0.0020395251024308485
258 0.0020672253135312 -0.0024903673134794124 -0.0023231760628503197
255 -0.000889727040890664 -0.0009060664393023464 -0.001979089222964113
256 0.001979102464069736 0.0020346572283313573 0.0020232735100627532
150 0.0013253426318472566 0.0020441912918469523 0.0008585091251379289
151 -0.002067339381084341 0.0006641897233539259 0.0001271216813767079
187 -0.0016456115966479443 0.001859680768512992 0.004017296736866612
184 -0.0008730006341382188 0.00028231502704893275 -0.0009575543643661251
186 0.002432712279361313 0.0004645085788736732 -0.0028339316203456447
188 0.004103616024111311 -0.0009979548167810607 0.0017783719905387066
195 -0.004506142919621587 0.0016912067097767864 0.0004934019822615579
27 -0.0011749569607367614 -0.0022206511434516205 0.0017380332888798581
43 0.002820478279866224 0.0016263752544159835 -0.0030964971650763173
26 0.002505691042269168 0.0009912086456444166 -0.002768467738620042
28 0.00112991789588901 0.003063374777221604 -0.003104713088049785
251 0.0015377725852690023 -0.002707788165425464 0.0005260309131395356
25 -0.0005399450955852168 -0.0016959157855703868 -0.0017035852493776748
248 -0.001576194571963052 -0.0019613405215626917 0.003350213057146398
247 -0.0031996898555289597 0.0011916114327349917 -0.0017407913530299412
250 0.004405653189240403 0.0011601468422064885 -0.001980322287998719
137 0.0006938723078706662 -0.0020626757487764245 -0.0003544129398491914
148 -0.001704204815953573 0.0030360298522886294 -0.0011898987061861887
152 0.001398475345810959 -0.0008395267680915824 -0.001274056373596164
180 0.003037739382267462 -0.0018891929111439333 -0.0037257598289496437
185 0.00015769463392870898 0.0016760903210567485 0.002166499384379642
212 0.00026968790937410424 -0.0022503903739606664 0.0008627819882843876
211 0.00016166534249657677 -0.0007046941633281242 0.005019001306085236
210 -0.00041459428484994274 0.001997843170279795 -0.0030667401628980935
47 -0.0008543376363535089 0.0011243553755213955 -0.0020815463040523828
246 0.00021471395303436595 -0.0004995342590132659 0.0008188921635565201
206 -0.002290786589768843 0.0005994725261183264 -0.0009026791193550281
207 -0.003938136465446637 0.0008969240466911048 -0.002130882654330161
244 -0.0017309918332782468 -0.0005212604814229062 0.005574691699830994
243 0.0004025895666806107 -0.00360604768208597 -7.357819774356372e-05
245 0.002277907963075353 0.0009616155323658708 -0.001972480514729875
249 0.0005294457505874943 -0.0015850236946063517 -0.0008170094996843984
130 0.0038585222319690755 -0.00308349602948232 -0.0008298720987232549
134 0.0016578564054122284 -0.0008955282306303684 -0.0007109250748888258
129 -0.00034835849098522324 -0.00035204477599480285 0.002087215992788404
115 0.002298946407374882 0.003237221045086218 0.0019566784252288967
117 -0.0017930079798166305 0.00036283965020674077 0.003524065005152828
114 0.00098825458303057 -0.00010988546958034479 -0.0015971815441166725
116 -0.0031592906192480395 -0.0008127827505304739 -0.0013253329201649716
132 -0.001487994055297318 0.0006382019054796911 -0.00025797780896236834
133 -0.0013947361055610913 -0.0008236998792382191 -0.0014241594657932559
112 0.0005037689010704775 0.0003681851842923128 0.0028609983032052005
111 -0.001505627447282275 0.0012041751142561647 0.0013180973215672312
90 0.003293189054964431 0.0011595881651393013 -0.002847308987608504
113 0.0008491033885772649 0.0006679676349893941 -0.0015273779267896811
88 0.0002176355921502476 -0.00029878342635421105 -0.001316952539236773
85 -0.00044002830716663715 -0.0005071174536609242 -0.0005000045390854044
89 -0.0030702927209544165 -0.0012102388759706961 -0.0013707883885301837
94 -0.001459205034117168 -0.003528121971533059 -0.000984308634227586
93 0.0004284005184573985 -0.003007095579774971 -0.002326878114526866
213 -0.0009884210553030193 -0.0010067141121783225 0.0011218844405756613
91 -0.00011730796255952779 -0.004324756291843138 -0.001668865410046749
214 -0.00046374211491607086 -0.0019728698670322025 -0.0023106121743867707
215 -0.0010897246838598908 0.0013201921684012723 0.00034959158296289807
209 -0.002040094613251516 0.0012612717391751464 -0.0019140709366827328
208 0.0017728793614832 -0.0005928480597706218 0.00036455973878035203
239 -0.0004053338732869932 0.0015735380864975057 -0.002119302100243106
241 0.0012183019126503856 -0.0020144959420905937 -0.0031397899073878767
240 -0.0006739868326397166 0.0009848495795030372 0.002363893049287018
126 0.0015321151414907682 -0.0005821966681279917 0.0006596492923475273
125 0.0012962561023879666 0.0015867064868471214 0.0011084462899880122
121 -0.0019450253959298197 -0.00013021620087225308 -0.0010305908766925992
82 0.0004299155122423633 -0.002982336997837047 0.0005270867108778455
80 -0.00141520202606637 -0.0014379316044794317 -0.002664632711725337