LAMMPS (31 Aug 2021)
OMP_NUM_THREADS environment is not set. Defaulting to 1 thread. (../comm.cpp:98)
  using 1 OpenMP thread(s) per MPI task
using multi-threaded neighbor list subroutines
set 8 OpenMP thread(s) per MPI task
using multi-threaded neighbor list subroutines
Reading data file ...
  orthogonal box = (-100.00000 -50.000000 0.0000000) to (100.00000 125.00000 200.00000)
  1 by 1 by 1 MPI processor grid
  reading atoms ...
  321 atoms
  scanning bonds ...
  6 = max bonds/atom
  scanning angles ...
  3 = max angles/atom
  scanning dihedrals ...
  1 = max dihedrals/atom
  scanning impropers ...
  3 = max impropers/atom
  reading bonds ...
  466 bonds
  reading angles ...
  355 angles
  reading dihedrals ...
  10 dihedrals
  reading impropers ...
  51 impropers
Finding 1-2 1-3 1-4 neighbors ...
  special bond factors lj:    0        0        0       
  special bond factors coul:  0        0.1      0.1     
     8 = max # of 1-2 neighbors
    48 = max # of 1-3 neighbors
   324 = max # of 1-4 neighbors
    26 = max # of special neighbors
  special bonds CPU = 0.000 seconds
  read_data CPU = 0.006 seconds
29 atoms in group Backbone
34 atoms in group Bases
63 atoms in group DNA
258 atoms in group Cancer_Cell
0 atoms in group water_ions
63 atoms in group DNA_water_ions
Respa levels:
  1 = bond
  2 = angle
  3 = dihedral improper
  4 = pair kspace
Displacing atoms ...
System init for write_data ...
Hybrid pair style last /omp style lj/gromacs/coul/gromacs
Last active /omp style is improper_style harmonic/omp
Neighbor list info ...
  update every 1 steps, delay 0 steps, check yes
  max neighbors/atom: 5000, page size: 100000
  master list distance cutoff = 202
  ghost atom cutoff = 202
  binsize = 101, bins = 2 2 2
  2 neighbor lists, perpetual/occasional/extra = 1 1 0
  (1) pair lj/gromacs/coul/gromacs, perpetual
      attributes: half, newton on, omp
      pair build: half/bin/newton/omp
      stencil: half/bin/3d
      bin: standard
  (2) compute group/group, occasional, copy from (1)
      attributes: half, newton on, omp
      pair build: copy
      stencil: none
      bin: none
Displacing atoms ...
System init for write_data ...
Hybrid pair style last /omp style lj/gromacs/coul/gromacs
Last active /omp style is improper_style harmonic/omp
Displacing atoms ...
Hybrid pair style last /omp style lj/gromacs/coul/gromacs
Last active /omp style is improper_style harmonic/omp
Setting up r-RESPA/omp run ...
  Unit style    : real
  Current step  : 0
  Time steps    : 1:1.25 2:2.5 3:5 4:10
  r-RESPA fixes :
Per MPI rank memory allocation (min/avg/max) = 24.94 | 24.94 | 24.94 Mbytes
Step TotEng PotEng v_PotEng_all v_GGE_ssDNA c_center1[1] c_center1[2] c_center1[3] c_center2[1] c_center2[2] c_center2[3] c_1 c_2 
       0    16066.281    16066.281    16066.281    258.73288   -4.2536382    51.181162    86.510244   -15.081512    6.7144347    82.026588            0    258.73288 
Loop time of 4.6e-07 on 8 procs for 0 steps with 321 atoms

217.4% CPU use with 1 MPI tasks x 8 OpenMP threads

MPI task timing breakdown:
Section |  min time  |  avg time  |  max time  |%varavg| %total
---------------------------------------------------------------
Pair    | 0          | 0          | 0          |   0.0 |  0.00
Bond    | 0          | 0          | 0          |   0.0 |  0.00
Neigh   | 0          | 0          | 0          |   0.0 |  0.00
Comm    | 0          | 0          | 0          |   0.0 |  0.00
Output  | 0          | 0          | 0          |   0.0 |  0.00
Modify  | 0          | 0          | 0          |   0.0 |  0.00
Other   |            | 4.6e-07    |            |       |100.00

Nlocal:        321.000 ave         321 max         321 min
Histogram: 1 0 0 0 0 0 0 0 0 0
Nghost:        8346.00 ave        8346 max        8346 min
Histogram: 1 0 0 0 0 0 0 0 0 0
Neighs:        242617.0 ave      242617 max      242617 min
Histogram: 1 0 0 0 0 0 0 0 0 0

Total # of neighbors = 242617
Ave neighs/atom = 755.81620
Ave special neighs/atom = 10.872274
Neighbor list builds = 0
Dangerous builds = 0
Displacing atoms ...
System init for write_data ...
Hybrid pair style last /omp style lj/gromacs/coul/gromacs
Last active /omp style is improper_style harmonic/omp
Hybrid pair style last /omp style lj/gromacs/coul/gromacs
Last active /omp style is improper_style harmonic/omp
Setting up r-RESPA/omp run ...
  Unit style    : real
  Current step  : 0
  Time steps    : 1:1.25 2:2.5 3:5 4:10
  r-RESPA fixes :
Per MPI rank memory allocation (min/avg/max) = 29.39 | 29.39 | 29.39 Mbytes
Step TotEng PotEng v_PotEng_all v_GGE_ssDNA c_center1[1] c_center1[2] c_center1[3] c_center2[1] c_center2[2] c_center2[3] c_1 c_2 
       0     16089.39     16089.39     16089.39    270.20867   -4.2536382    51.181162    86.510244   -15.081512    6.7144347    82.026588            0    270.20867 
Loop time of 4.4e-07 on 8 procs for 0 steps with 321 atoms

227.3% CPU use with 1 MPI tasks x 8 OpenMP threads

MPI task timing breakdown:
Section |  min time  |  avg time  |  max time  |%varavg| %total
---------------------------------------------------------------
Pair    | 0          | 0          | 0          |   0.0 |  0.00
Bond    | 0          | 0          | 0          |   0.0 |  0.00
Neigh   | 0          | 0          | 0          |   0.0 |  0.00
Comm    | 0          | 0          | 0          |   0.0 |  0.00
Output  | 0          | 0          | 0          |   0.0 |  0.00
Modify  | 0          | 0          | 0          |   0.0 |  0.00
Other   |            | 4.4e-07    |            |       |100.00

Nlocal:        321.000 ave         321 max         321 min
Histogram: 1 0 0 0 0 0 0 0 0 0
Nghost:        8346.00 ave        8346 max        8346 min
Histogram: 1 0 0 0 0 0 0 0 0 0
Neighs:        242779.0 ave      242779 max      242779 min
Histogram: 1 0 0 0 0 0 0 0 0 0

Total # of neighbors = 242779
Ave neighs/atom = 756.32087
Ave special neighs/atom = 10.872274
Neighbor list builds = 0
Dangerous builds = 0
WARNING: Ignoring 'compress yes' for molecular system (../delete_atoms.cpp:126)
Deleted 0 atoms, new total = 321
Big BH Loop Start
Scanning dump file ...
Reading snapshot from dump file ...
  orthogonal box = (-100.00000 -50.000000 0.0000000) to (100.00000 125.00000 200.00000)
  321 atoms before read
  321 atoms in snapshot
  0 atoms purged
  321 atoms replaced
  0 atoms trimmed
  0 atoms added
  321 atoms after read
Setting atom values ...
  258 settings made for charge
0 atoms in group water_ions
WARNING: Ignoring 'compress yes' for molecular system (../delete_atoms.cpp:126)
Deleted 0 atoms, new total = 321
Hybrid pair style last /omp style lj/gromacs/coul/gromacs
Last active /omp style is improper_style harmonic/omp
Setting up r-RESPA/omp run ...
  Unit style    : real
  Current step  : 0
  Time steps    : 1:1.25 2:2.5 3:5 4:10
  r-RESPA fixes :
Per MPI rank memory allocation (min/avg/max) = 28.12 | 28.12 | 28.12 Mbytes
Step c_center1[1] c_center1[2] c_center1[3] c_center2[1] c_center2[2] c_center2[3] c_1 c_2 
       0   -4.2536388    51.181162    86.510228   -15.081511     6.714435    82.026586            0    237.84481 
Loop time of 4.3e-07 on 8 procs for 0 steps with 321 atoms

232.6% CPU use with 1 MPI tasks x 8 OpenMP threads

MPI task timing breakdown:
Section |  min time  |  avg time  |  max time  |%varavg| %total
---------------------------------------------------------------
Pair    | 0          | 0          | 0          |   0.0 |  0.00
Bond    | 0          | 0          | 0          |   0.0 |  0.00
Neigh   | 0          | 0          | 0          |   0.0 |  0.00
Comm    | 0          | 0          | 0          |   0.0 |  0.00
Output  | 0          | 0          | 0          |   0.0 |  0.00
Modify  | 0          | 0          | 0          |   0.0 |  0.00
Other   |            | 4.3e-07    |            |       |100.00

Nlocal:        321.000 ave         321 max         321 min
Histogram: 1 0 0 0 0 0 0 0 0 0
Nghost:        8346.00 ave        8346 max        8346 min
Histogram: 1 0 0 0 0 0 0 0 0 0
Neighs:        242779.0 ave      242779 max      242779 min
Histogram: 1 0 0 0 0 0 0 0 0 0

Total # of neighbors = 242779
Ave neighs/atom = 756.32087
Ave special neighs/atom = 10.872274
Neighbor list builds = 0
Dangerous builds = 0
Displacing atoms ...
Hybrid pair style last /omp style lj/gromacs/coul/gromacs
Last active /omp style is improper_style harmonic/omp
Setting up r-RESPA/omp run ...
  Unit style    : real
  Current step  : 0
  Time steps    : 1:1.25 2:2.5 3:5 4:10
  r-RESPA fixes :
Per MPI rank memory allocation (min/avg/max) = 28.12 | 28.12 | 28.12 Mbytes
Step c_center1[1] c_center1[2] c_center1[3] c_center2[1] c_center2[2] c_center2[3] c_1 c_2 
       0   -4.2536388    51.181162    86.510228   -15.081511     6.714435    82.026586            0    237.84481 
Loop time of 3.7e-07 on 8 procs for 0 steps with 321 atoms

540.5% CPU use with 1 MPI tasks x 8 OpenMP threads

MPI task timing breakdown:
Section |  min time  |  avg time  |  max time  |%varavg| %total
---------------------------------------------------------------
Pair    | 0          | 0          | 0          |   0.0 |  0.00
Bond    | 0          | 0          | 0          |   0.0 |  0.00
Neigh   | 0          | 0          | 0          |   0.0 |  0.00
Comm    | 0          | 0          | 0          |   0.0 |  0.00
Output  | 0          | 0          | 0          |   0.0 |  0.00
Modify  | 0          | 0          | 0          |   0.0 |  0.00
Other   |            | 3.7e-07    |            |       |100.00

Nlocal:        321.000 ave         321 max         321 min
Histogram: 1 0 0 0 0 0 0 0 0 0
Nghost:        8346.00 ave        8346 max        8346 min
Histogram: 1 0 0 0 0 0 0 0 0 0
Neighs:        241792.0 ave      241792 max      241792 min
Histogram: 1 0 0 0 0 0 0 0 0 0

Total # of neighbors = 241792
Ave neighs/atom = 753.24611
Ave special neighs/atom = 10.872274
Neighbor list builds = 0
Dangerous builds = 0
Displacing atoms ...
Hybrid pair style last /omp style lj/gromacs/coul/gromacs
Last active /omp style is improper_style harmonic/omp
Setting up r-RESPA/omp run ...
  Unit style    : real
  Current step  : 0
  Time steps    : 1:1.25 2:2.5 3:5 4:10
  r-RESPA fixes :
Per MPI rank memory allocation (min/avg/max) = 28.12 | 28.12 | 28.12 Mbytes
Step E_vdwl c_1 c_2 v_xmoveDNA v_ymoveDNA v_zmoveDNA v_unitm v_1to2_xmove v_1to2_ymove v_1to2_zmove 
       0    14795.588            0    237.84481   -10.827873   -44.466727            0    45.766065  -0.23659174  -0.97160916            0 
Loop time of 3.9e-07 on 8 procs for 0 steps with 321 atoms

256.4% CPU use with 1 MPI tasks x 8 OpenMP threads

MPI task timing breakdown:
Section |  min time  |  avg time  |  max time  |%varavg| %total
---------------------------------------------------------------
Pair    | 0          | 0          | 0          |   0.0 |  0.00
Bond    | 0          | 0          | 0          |   0.0 |  0.00
Neigh   | 0          | 0          | 0          |   0.0 |  0.00
Comm    | 0          | 0          | 0          |   0.0 |  0.00
Output  | 0          | 0          | 0          |   0.0 |  0.00
Modify  | 0          | 0          | 0          |   0.0 |  0.00
Other   |            | 3.9e-07    |            |       |100.00

Nlocal:        321.000 ave         321 max         321 min
Histogram: 1 0 0 0 0 0 0 0 0 0
Nghost:        8346.00 ave        8346 max        8346 min
Histogram: 1 0 0 0 0 0 0 0 0 0
Neighs:        241902.0 ave      241902 max      241902 min
Histogram: 1 0 0 0 0 0 0 0 0 0

Total # of neighbors = 241902
Ave neighs/atom = 753.58879
Ave special neighs/atom = 10.872274
Neighbor list builds = 0
Dangerous builds = 0
Hybrid pair style last /omp style lj/gromacs/coul/gromacs
Last active /omp style is improper_style harmonic/omp
Setting up r-RESPA/omp run ...
  Unit style    : real
  Current step  : 0
  Time steps    : 1:1.25 2:2.5 3:5 4:10
  r-RESPA fixes :
Per MPI rank memory allocation (min/avg/max) = 28.12 | 28.12 | 28.12 Mbytes
Step E_vdwl c_1 c_2 v_xmoveDNA v_ymoveDNA v_zmoveDNA v_unitm v_1to2_xmove v_1to2_ymove v_1to2_zmove v_2to1_xmove v_2to1_ymove v_2to1_zmove 
       0    14795.588            0    237.84481   -10.827873   -44.466727            0    45.766065  -0.23659174  -0.97160916            0   0.23659174   0.97160916            0 
Loop time of 4e-07 on 8 procs for 0 steps with 321 atoms

250.0% CPU use with 1 MPI tasks x 8 OpenMP threads

MPI task timing breakdown:
Section |  min time  |  avg time  |  max time  |%varavg| %total
---------------------------------------------------------------
Pair    | 0          | 0          | 0          |   0.0 |  0.00
Bond    | 0          | 0          | 0          |   0.0 |  0.00
Neigh   | 0          | 0          | 0          |   0.0 |  0.00
Comm    | 0          | 0          | 0          |   0.0 |  0.00
Output  | 0          | 0          | 0          |   0.0 |  0.00
Modify  | 0          | 0          | 0          |   0.0 |  0.00
Other   |            | 4e-07      |            |       |100.00

Nlocal:        321.000 ave         321 max         321 min
Histogram: 1 0 0 0 0 0 0 0 0 0
Nghost:        8346.00 ave        8346 max        8346 min
Histogram: 1 0 0 0 0 0 0 0 0 0
Neighs:        241902.0 ave      241902 max      241902 min
Histogram: 1 0 0 0 0 0 0 0 0 0

Total # of neighbors = 241902
Ave neighs/atom = 753.58879
Ave special neighs/atom = 10.872274
Neighbor list builds = 0
Dangerous builds = 0
Hybrid pair style last /omp style lj/gromacs/coul/gromacs
Last active /omp style is improper_style harmonic/omp
Setting up r-RESPA/omp run ...
  Unit style    : real
  Current step  : 0
  Time steps    : 1:1.25 2:2.5 3:5 4:10
  r-RESPA fixes :
Per MPI rank memory allocation (min/avg/max) = 28.12 | 28.12 | 28.12 Mbytes
Step E_vdwl c_1 c_2 v_xmoveDNA v_ymoveDNA v_zmoveDNA v_unitm v_1to2_xmove v_1to2_ymove v_1to2_zmove 
       0    14795.588            0    237.84481   -10.827873   -44.466727            0    45.766065  -0.23659174  -0.97160916            0 
Loop time of 4.5e-07 on 8 procs for 0 steps with 321 atoms

222.2% CPU use with 1 MPI tasks x 8 OpenMP threads

MPI task timing breakdown:
Section |  min time  |  avg time  |  max time  |%varavg| %total
---------------------------------------------------------------
Pair    | 0          | 0          | 0          |   0.0 |  0.00
Bond    | 0          | 0          | 0          |   0.0 |  0.00
Neigh   | 0          | 0          | 0          |   0.0 |  0.00
Comm    | 0          | 0          | 0          |   0.0 |  0.00
Output  | 0          | 0          | 0          |   0.0 |  0.00
Modify  | 0          | 0          | 0          |   0.0 |  0.00
Other   |            | 4.5e-07    |            |       |100.00

Nlocal:        321.000 ave         321 max         321 min
Histogram: 1 0 0 0 0 0 0 0 0 0
Nghost:        8346.00 ave        8346 max        8346 min
Histogram: 1 0 0 0 0 0 0 0 0 0
Neighs:        241902.0 ave      241902 max      241902 min
Histogram: 1 0 0 0 0 0 0 0 0 0

Total # of neighbors = 241902
Ave neighs/atom = 753.58879
Ave special neighs/atom = 10.872274
Neighbor list builds = 0
Dangerous builds = 0
Displacing atoms ...
Setting atom values ...
  321 settings made for charge
Hybrid pair style last /omp style lj/gromacs/coul/gromacs
Last active /omp style is improper_style harmonic/omp
Setting up r-RESPA/omp run ...
  Unit style    : real
  Current step  : 0
  Time steps    : 1:1.25 2:2.5 3:5 4:10
  r-RESPA fixes :
Per MPI rank memory allocation (min/avg/max) = 28.12 | 28.12 | 28.12 Mbytes
Step E_vdwl c_1 c_2 v_xmoveDNA v_ymoveDNA v_zmoveDNA v_unitm v_1to2_xmove v_1to2_ymove v_1to2_zmove 
       0    14795.588            0    272.08859   -10.591281   -43.495118            0    44.766065  -0.23659174  -0.97160916            0 
Loop time of 4.3e-07 on 8 procs for 0 steps with 321 atoms

232.6% CPU use with 1 MPI tasks x 8 OpenMP threads

MPI task timing breakdown:
Section |  min time  |  avg time  |  max time  |%varavg| %total
---------------------------------------------------------------
Pair    | 0          | 0          | 0          |   0.0 |  0.00
Bond    | 0          | 0          | 0          |   0.0 |  0.00
Neigh   | 0          | 0          | 0          |   0.0 |  0.00
Comm    | 0          | 0          | 0          |   0.0 |  0.00
Output  | 0          | 0          | 0          |   0.0 |  0.00
Modify  | 0          | 0          | 0          |   0.0 |  0.00
Other   |            | 4.3e-07    |            |       |100.00

Nlocal:        321.000 ave         321 max         321 min
Histogram: 1 0 0 0 0 0 0 0 0 0
Nghost:        8346.00 ave        8346 max        8346 min
Histogram: 1 0 0 0 0 0 0 0 0 0
Neighs:        242259.0 ave      242259 max      242259 min
Histogram: 1 0 0 0 0 0 0 0 0 0

Total # of neighbors = 242259
Ave neighs/atom = 754.70093
Ave special neighs/atom = 10.872274
Neighbor list builds = 0
Dangerous builds = 0
********** Final groupE after adjustment is 0
System init for write_data ...
Hybrid pair style last /omp style lj/gromacs/coul/gromacs
Last active /omp style is improper_style harmonic/omp
Hybrid pair style last /omp style lj/gromacs/coul/gromacs
Last active /omp style is improper_style harmonic/omp
Setting up r-RESPA/omp run ...
  Unit style    : real
  Current step  : 0
  Time steps    : 1:1.25 2:2.5 3:5 4:10
  r-RESPA fixes :
Per MPI rank memory allocation (min/avg/max) = 29.39 | 29.39 | 29.39 Mbytes
Step E_vdwl c_1 c_2 v_xmoveDNA v_ymoveDNA v_zmoveDNA v_unitm v_1to2_xmove v_1to2_ymove v_1to2_zmove 
       0    14795.588            0    272.08859   -10.591281   -43.495118            0    44.766065  -0.23659174  -0.97160916            0 
Loop time of 4.6e-07 on 8 procs for 0 steps with 321 atoms

217.4% CPU use with 1 MPI tasks x 8 OpenMP threads

MPI task timing breakdown:
Section |  min time  |  avg time  |  max time  |%varavg| %total
---------------------------------------------------------------
Pair    | 0          | 0          | 0          |   0.0 |  0.00
Bond    | 0          | 0          | 0          |   0.0 |  0.00
Neigh   | 0          | 0          | 0          |   0.0 |  0.00
Comm    | 0          | 0          | 0          |   0.0 |  0.00
Output  | 0          | 0          | 0          |   0.0 |  0.00
Modify  | 0          | 0          | 0          |   0.0 |  0.00
Other   |            | 4.6e-07    |            |       |100.00

Nlocal:        321.000 ave         321 max         321 min
Histogram: 1 0 0 0 0 0 0 0 0 0
Nghost:        8346.00 ave        8346 max        8346 min
Histogram: 1 0 0 0 0 0 0 0 0 0
Neighs:        242259.0 ave      242259 max      242259 min
Histogram: 1 0 0 0 0 0 0 0 0 0

Total # of neighbors = 242259
Ave neighs/atom = 754.70093
Ave special neighs/atom = 10.872274
Neighbor list builds = 0
Dangerous builds = 0
Setting atom values ...
  63 settings made for charge
Setting atom values ...
  258 settings made for charge
Hybrid pair style last /omp style lj/gromacs/coul/gromacs
Last active /omp style is improper_style harmonic/omp
Neighbor list info ...
  update every 1 steps, delay 0 steps, check yes
  max neighbors/atom: 5000, page size: 100000
  master list distance cutoff = 202
  ghost atom cutoff = 202
  binsize = 101, bins = 2 2 2
  2 neighbor lists, perpetual/occasional/extra = 1 1 0
  (1) pair lj/gromacs/coul/gromacs, perpetual
      attributes: half, newton on, omp
      pair build: half/bin/newton/omp
      stencil: half/bin/3d
      bin: standard
  (2) compute group/group, occasional, copy from (1)
      attributes: half, newton on, omp
      pair build: copy
      stencil: none
      bin: none
Setting up cg style minimization ...
  Unit style    : real
  Current step  : 0
Per MPI rank memory allocation (min/avg/max) = 25.07 | 25.07 | 25.07 Mbytes
Step E_vdwl c_1 c_2 v_xmoveDNA v_ymoveDNA v_zmoveDNA v_unitm v_1to2_xmove v_1to2_ymove v_1to2_zmove 
       0    14795.588   -41.692161    95.418897   -10.591281   -43.495118            0    44.766065  -0.23659174  -0.97160916            0 
    1000   -960.56799   -188.98448   -106.37619   -6.9805621    -24.76296            0    25.728048  -0.27132109  -0.96248889            0 
    2000   -1081.1093   -314.40854   -171.16117    -3.451141    -18.56345            0    18.881526  -0.18277871  -0.98315408            0 
    3000   -1102.8817   -331.20227   -178.92698   -3.4450307   -18.056516            0     18.38222  -0.18741103  -0.98228158            0 
    4000   -1102.8817   -331.20227   -178.92698   -3.4450307   -18.056516            0     18.38222  -0.18741103  -0.98228158            0 
    5000   -1102.8817   -331.20227   -178.92698   -3.4450307   -18.056516            0     18.38222  -0.18741103  -0.98228158            0 
    5153   -1102.8817   -331.20227   -178.92698   -3.4450307   -18.056516            0     18.38222  -0.18741103  -0.98228158            0 
Loop time of 8.41569 on 8 procs for 5153 steps with 321 atoms

798.2% CPU use with 1 MPI tasks x 8 OpenMP threads

Minimization stats:
  Stopping criterion = max force evaluations
  Energy initial, next-to-last, final = 
      16715.4245458357   -257.25588050687   -257.25588050687
  Force two-norm initial, final = 94545.327 6.3889892e-12
  Force max component initial, final = 55295.632 1.6754389e-12
  Final line search alpha, max atom move = 1.0000000 1.6754389e-12
  Iterations, force evaluations = 5153 10000

MPI task timing breakdown:
Section |  min time  |  avg time  |  max time  |%varavg| %total
---------------------------------------------------------------
Pair    | 6.4727     | 6.4727     | 6.4727     |   0.0 | 76.91
Bond    | 0.86609    | 0.86609    | 0.86609    |   0.0 | 10.29
Neigh   | 0.12146    | 0.12146    | 0.12146    |   0.0 |  1.44
Comm    | 0.33468    | 0.33468    | 0.33468    |   0.0 |  3.98
Output  | 0.0067964  | 0.0067964  | 0.0067964  |   0.0 |  0.08
Modify  | 0.56017    | 0.56017    | 0.56017    |   0.0 |  6.66
Other   |            | 0.05374    |            |       |  0.64

Nlocal:        321.000 ave         321 max         321 min
Histogram: 1 0 0 0 0 0 0 0 0 0
Nghost:        8346.00 ave        8346 max        8346 min
Histogram: 1 0 0 0 0 0 0 0 0 0
Neighs:        261408.0 ave      261408 max      261408 min
Histogram: 1 0 0 0 0 0 0 0 0 0

Total # of neighbors = 261408
Ave neighs/atom = 814.35514
Ave special neighs/atom = 10.872274
Neighbor list builds = 142
Dangerous builds = 0
Setting atom values ...
  321 settings made for charge
Finding 1-2 1-3 1-4 neighbors ...
  special bond factors lj:    0        1        1       
  special bond factors coul:  0        1        1       
     8 = max # of 1-2 neighbors
    26 = max # of special neighbors
  special bonds CPU = 0.000 seconds
Hybrid pair style last /omp style lj/gromacs/coul/gromacs
Last active /omp style is improper_style harmonic/omp
Neighbor list info ...
  update every 1 steps, delay 0 steps, check yes
  max neighbors/atom: 5000, page size: 100000
  master list distance cutoff = 14
  ghost atom cutoff = 14
  binsize = 7, bins = 29 25 29
  2 neighbor lists, perpetual/occasional/extra = 1 1 0
  (1) pair lj/gromacs/coul/gromacs, perpetual
      attributes: half, newton on, omp
      pair build: half/bin/newton/omp
      stencil: half/bin/3d
      bin: standard
  (2) compute group/group, occasional, copy from (1)
      attributes: half, newton on, omp
      pair build: copy
      stencil: none
      bin: none
Setting up cg style minimization ...
  Unit style    : real
  Current step  : 5153
Per MPI rank memory allocation (min/avg/max) = 25.23 | 25.23 | 25.23 Mbytes
Step E_vdwl c_1 c_2 v_xmoveDNA v_ymoveDNA v_zmoveDNA v_unitm v_1to2_xmove v_1to2_ymove v_1to2_zmove 
    5153 1.7680262e+11   -196.73637 1.7680262e+11   -3.4450307   -18.056516            0     18.38222  -0.18741103  -0.98228158            0 
    5421   -1495.7996     -160.416   -115.80789    -2.907888   -18.883211            0    19.105797  -0.15219925  -0.98834983            0 
Loop time of 0.043374 on 8 procs for 268 steps with 321 atoms

798.2% CPU use with 1 MPI tasks x 8 OpenMP threads

Minimization stats:
  Stopping criterion = linesearch alpha is zero
  Energy initial, next-to-last, final = 
      176802623124.402  -1373.90781129595  -1373.90781129595
  Force two-norm initial, final = 4.5078985e+12 1.9529279
  Force max component initial, final = 2.2028081e+12 0.53785920
  Final line search alpha, max atom move = 2.5452495e-09 1.3689859e-09
  Iterations, force evaluations = 268 482

MPI task timing breakdown:
Section |  min time  |  avg time  |  max time  |%varavg| %total
---------------------------------------------------------------
Pair    | 0.018251   | 0.018251   | 0.018251   |   0.0 | 42.08
Bond    | 0.016966   | 0.016966   | 0.016966   |   0.0 | 39.12
Neigh   | 0.0017003  | 0.0017003  | 0.0017003  |   0.0 |  3.92
Comm    | 0.0001177  | 0.0001177  | 0.0001177  |   0.0 |  0.27
Output  | 0          | 0          | 0          |   0.0 |  0.00
Modify  | 0.0033874  | 0.0033874  | 0.0033874  |   0.0 |  7.81
Other   |            | 0.002951   |            |       |  6.80

Nlocal:        321.000 ave         321 max         321 min
Histogram: 1 0 0 0 0 0 0 0 0 0
Nghost:         0.00000 ave           0 max           0 min
Histogram: 1 0 0 0 0 0 0 0 0 0
Neighs:        13441.0 ave       13441 max       13441 min
Histogram: 1 0 0 0 0 0 0 0 0 0

Total # of neighbors = 13441
Ave neighs/atom = 41.872274
Ave special neighs/atom = 2.9034268
Neighbor list builds = 18
Dangerous builds = 0
Respa levels:
  1 = bond
  2 = angle
  3 = dihedral improper
  4 = pair kspace
321 atoms in group all_mol
11
Changing box ...
  orthogonal box = (-47.834144 -50.000000 0.0000000) to (17.116105 125.00000 200.00000)
  orthogonal box = (-47.834144 -29.120154 0.0000000) to (17.116105 46.282053 200.00000)
  orthogonal box = (-47.834144 -29.120154 61.173530) to (17.116105 46.282053 124.31817)
Changing box ...
  orthogonal box = (-47.834144 -29.120154 61.173530) to (17.116105 46.282053 124.31817)
  orthogonal box = (-47.834144 -29.120154 61.173530) to (17.116105 46.282053 124.31817)
  orthogonal box = (-47.834144 -29.120154 61.173530) to (17.116105 46.282053 124.31817)
Created 15 atoms
  using lattice units in orthogonal box = (-47.834144 -29.120154 61.173530) to (17.116105 46.282053 124.31817)
  create_atoms CPU = 0.000 seconds
Setting atom values ...
  0 settings made for charge
Setting atom values ...
  15 settings made for charge
Setting atom values ...
  0 settings made for mol
Setting atom values ...
  15 settings made for mol
Read molecule template water_w_1:
  1 molecules
  0 fragments
  3 atoms with max type 17
  3 bonds with max type 96
  1 angles with max type 34
  0 dihedrals with max type 0
  0 impropers with max type 0
Hybrid pair style last /omp style lj/gromacs/coul/gromacs
Last active /omp style is improper_style harmonic/omp
Setting up r-RESPA/omp run ...
  Unit style    : real
  Current step  : 0
  Time steps    : 1:1.25 2:2.5 3:5 4:10
  r-RESPA fixes :
Per MPI rank memory allocation (min/avg/max) = 28.63 | 28.63 | 28.63 Mbytes
Step E_vdwl Density PotEng 
       0   -1498.1248   0.11627485   -1370.0646 
     100   -901.11253   0.15493648   -735.91274 
Loop time of 0.0616649 on 8 procs for 100 steps with 636 atoms

Performance: 1401.121 ns/day, 0.017 hours/ns, 1621.668 timesteps/s
787.9% CPU use with 1 MPI tasks x 8 OpenMP threads

MPI task timing breakdown:
Section |  min time  |  avg time  |  max time  |%varavg| %total
---------------------------------------------------------------
Pair    | 0.0038286  | 0.0038286  | 0.0038286  |   0.0 |  6.21
Bond    | 0.0099998  | 0.0099998  | 0.0099998  |   0.0 | 16.22
Neigh   | 0.011596   | 0.011596   | 0.011596   |   0.0 | 18.80
Comm    | 0.020258   | 0.020258   | 0.020258   |   0.0 | 32.85
Output  | 8.76e-06   | 8.76e-06   | 8.76e-06   |   0.0 |  0.01
Modify  | 0.01345    | 0.01345    | 0.01345    |   0.0 | 21.81
Other   |            | 0.002524   |            |       |  4.09

Nlocal:        636.000 ave         636 max         636 min
Histogram: 1 0 0 0 0 0 0 0 0 0
Nghost:        608.000 ave         608 max         608 min
Histogram: 1 0 0 0 0 0 0 0 0 0
Neighs:        17667.0 ave       17667 max       17667 min
Histogram: 1 0 0 0 0 0 0 0 0 0

Total # of neighbors = 17667
Ave neighs/atom = 27.778302
Ave special neighs/atom = 2.4088050
Neighbor list builds = 100
Dangerous builds = 0
Hybrid pair style last /omp style lj/gromacs/coul/gromacs
Last active /omp style is improper_style harmonic/omp
Setting up r-RESPA/omp run ...
  Unit style    : real
  Current step  : 0
  Time steps    : 1:1.25 2:2.5 3:5 4:10
  r-RESPA fixes :
Per MPI rank memory allocation (min/avg/max) = 28.90 | 28.90 | 28.90 Mbytes
Step E_vdwl Density PotEng 
       0   -901.11253   0.15493648   -735.91274 
     100   -551.66834   0.19359811   -344.38647 
Loop time of 0.0948407 on 8 procs for 100 steps with 936 atoms

Performance: 911.002 ns/day, 0.026 hours/ns, 1054.400 timesteps/s
786.3% CPU use with 1 MPI tasks x 8 OpenMP threads

MPI task timing breakdown:
Section |  min time  |  avg time  |  max time  |%varavg| %total
---------------------------------------------------------------
Pair    | 0.0056331  | 0.0056331  | 0.0056331  |   0.0 |  5.94
Bond    | 0.011799   | 0.011799   | 0.011799   |   0.0 | 12.44
Neigh   | 0.018102   | 0.018102   | 0.018102   |   0.0 | 19.09
Comm    | 0.033345   | 0.033345   | 0.033345   |   0.0 | 35.16
Output  | 9.29e-06   | 9.29e-06   | 9.29e-06   |   0.0 |  0.01
Modify  | 0.022602   | 0.022602   | 0.022602   |   0.0 | 23.83
Other   |            | 0.003351   |            |       |  3.53

Nlocal:        936.000 ave         936 max         936 min
Histogram: 1 0 0 0 0 0 0 0 0 0
Nghost:        1233.00 ave        1233 max        1233 min
Histogram: 1 0 0 0 0 0 0 0 0 0
Neighs:        24409.0 ave       24409 max       24409 min
Histogram: 1 0 0 0 0 0 0 0 0 0

Total # of neighbors = 24409
Ave neighs/atom = 26.077991
Ave special neighs/atom = 2.2777778
Neighbor list builds = 100
Dangerous builds = 0
Hybrid pair style last /omp style lj/gromacs/coul/gromacs
Last active /omp style is improper_style harmonic/omp
Setting up r-RESPA/omp run ...
  Unit style    : real
  Current step  : 0
  Time steps    : 1:1.25 2:2.5 3:5 4:10
  r-RESPA fixes :
Per MPI rank memory allocation (min/avg/max) = 28.92 | 28.92 | 28.92 Mbytes
Step E_vdwl Density PotEng 
       0   -551.66834   0.19359811   -344.38647 
     100    1163.9782   0.23225974    1407.7379 
Loop time of 0.129776 on 8 procs for 100 steps with 1236 atoms

Performance: 665.760 ns/day, 0.036 hours/ns, 770.556 timesteps/s
793.9% CPU use with 1 MPI tasks x 8 OpenMP threads

MPI task timing breakdown:
Section |  min time  |  avg time  |  max time  |%varavg| %total
---------------------------------------------------------------
Pair    | 0.0074787  | 0.0074787  | 0.0074787  |   0.0 |  5.76
Bond    | 0.013836   | 0.013836   | 0.013836   |   0.0 | 10.66
Neigh   | 0.024637   | 0.024637   | 0.024637   |   0.0 | 18.98
Comm    | 0.047203   | 0.047203   | 0.047203   |   0.0 | 36.37
Output  | 9.77e-06   | 9.77e-06   | 9.77e-06   |   0.0 |  0.01
Modify  | 0.03233    | 0.03233    | 0.03233    |   0.0 | 24.91
Other   |            | 0.004282   |            |       |  3.30

Nlocal:        1236.00 ave        1236 max        1236 min
Histogram: 1 0 0 0 0 0 0 0 0 0
Nghost:        1908.00 ave        1908 max        1908 min
Histogram: 1 0 0 0 0 0 0 0 0 0
Neighs:        34266.0 ave       34266 max       34266 min
Histogram: 1 0 0 0 0 0 0 0 0 0

Total # of neighbors = 34266
Ave neighs/atom = 27.723301
Ave special neighs/atom = 2.2103560
Neighbor list builds = 100
Dangerous builds = 0
Hybrid pair style last /omp style lj/gromacs/coul/gromacs
Last active /omp style is improper_style harmonic/omp
Setting up r-RESPA/omp run ...
  Unit style    : real
  Current step  : 0
  Time steps    : 1:1.25 2:2.5 3:5 4:10
  r-RESPA fixes :
Per MPI rank memory allocation (min/avg/max) = 28.93 | 28.93 | 28.93 Mbytes
Step E_vdwl Density PotEng 
       0    1163.9782   0.23225974    1407.7379 
     100    8080.4798   0.27092137    8393.9904 
Loop time of 0.163872 on 8 procs for 100 steps with 1536 atoms

Performance: 527.241 ns/day, 0.046 hours/ns, 610.233 timesteps/s
797.5% CPU use with 1 MPI tasks x 8 OpenMP threads

MPI task timing breakdown:
Section |  min time  |  avg time  |  max time  |%varavg| %total
---------------------------------------------------------------
Pair    | 0.0093479  | 0.0093479  | 0.0093479  |   0.0 |  5.70
Bond    | 0.015956   | 0.015956   | 0.015956   |   0.0 |  9.74
Neigh   | 0.031506   | 0.031506   | 0.031506   |   0.0 | 19.23
Comm    | 0.059925   | 0.059925   | 0.059925   |   0.0 | 36.57
Output  | 1.047e-05  | 1.047e-05  | 1.047e-05  |   0.0 |  0.01
Modify  | 0.042016   | 0.042016   | 0.042016   |   0.0 | 25.64
Other   |            | 0.00511    |            |       |  3.12

Nlocal:        1536.00 ave        1536 max        1536 min
Histogram: 1 0 0 0 0 0 0 0 0 0
Nghost:        2428.00 ave        2428 max        2428 min
Histogram: 1 0 0 0 0 0 0 0 0 0
Neighs:        48126.0 ave       48126 max       48126 min
Histogram: 1 0 0 0 0 0 0 0 0 0

Total # of neighbors = 48126
Ave neighs/atom = 31.332031
Ave special neighs/atom = 2.1692708
Neighbor list builds = 100
Dangerous builds = 0
Hybrid pair style last /omp style lj/gromacs/coul/gromacs
Last active /omp style is improper_style harmonic/omp
Setting up r-RESPA/omp run ...
  Unit style    : real
  Current step  : 0
  Time steps    : 1:1.25 2:2.5 3:5 4:10
  r-RESPA fixes :
Per MPI rank memory allocation (min/avg/max) = 28.94 | 28.94 | 28.94 Mbytes
Step E_vdwl Density PotEng 
       0    8080.4798   0.27092137    8393.9904 
     100    11091.478     0.309583    11434.181 
Loop time of 0.196839 on 8 procs for 100 steps with 1836 atoms

Performance: 438.938 ns/day, 0.055 hours/ns, 508.031 timesteps/s
797.3% CPU use with 1 MPI tasks x 8 OpenMP threads

MPI task timing breakdown:
Section |  min time  |  avg time  |  max time  |%varavg| %total
---------------------------------------------------------------
Pair    | 0.011584   | 0.011584   | 0.011584   |   0.0 |  5.88
Bond    | 0.017924   | 0.017924   | 0.017924   |   0.0 |  9.11
Neigh   | 0.038721   | 0.038721   | 0.038721   |   0.0 | 19.67
Comm    | 0.071807   | 0.071807   | 0.071807   |   0.0 | 36.48
Output  | 1.14e-05   | 1.14e-05   | 1.14e-05   |   0.0 |  0.01
Modify  | 0.050347   | 0.050347   | 0.050347   |   0.0 | 25.58
Other   |            | 0.006443   |            |       |  3.27

Nlocal:        1836.00 ave        1836 max        1836 min
Histogram: 1 0 0 0 0 0 0 0 0 0
Nghost:        2991.00 ave        2991 max        2991 min
Histogram: 1 0 0 0 0 0 0 0 0 0
Neighs:        65351.0 ave       65351 max       65351 min
Histogram: 1 0 0 0 0 0 0 0 0 0

Total # of neighbors = 65351
Ave neighs/atom = 35.594227
Ave special neighs/atom = 2.1416122
Neighbor list builds = 100
Dangerous builds = 0
Hybrid pair style last /omp style lj/gromacs/coul/gromacs
Last active /omp style is improper_style harmonic/omp
Setting up r-RESPA/omp run ...
  Unit style    : real
  Current step  : 0
  Time steps    : 1:1.25 2:2.5 3:5 4:10
  r-RESPA fixes :
Per MPI rank memory allocation (min/avg/max) = 28.95 | 28.95 | 28.95 Mbytes
Step E_vdwl Density PotEng 
       0    11091.478     0.309583    11434.181 
     100     20076.18   0.34824463    20470.293 
Loop time of 0.231985 on 8 procs for 100 steps with 2136 atoms

Performance: 372.438 ns/day, 0.064 hours/ns, 431.062 timesteps/s
798.0% CPU use with 1 MPI tasks x 8 OpenMP threads

MPI task timing breakdown:
Section |  min time  |  avg time  |  max time  |%varavg| %total
---------------------------------------------------------------
Pair    | 0.014902   | 0.014902   | 0.014902   |   0.0 |  6.42
Bond    | 0.02008    | 0.02008    | 0.02008    |   0.0 |  8.66
Neigh   | 0.046543   | 0.046543   | 0.046543   |   0.0 | 20.06
Comm    | 0.083399   | 0.083399   | 0.083399   |   0.0 | 35.95
Output  | 1.207e-05  | 1.207e-05  | 1.207e-05  |   0.0 |  0.01
Modify  | 0.059956   | 0.059956   | 0.059956   |   0.0 | 25.84
Other   |            | 0.007094   |            |       |  3.06

Nlocal:        2136.00 ave        2136 max        2136 min
Histogram: 1 0 0 0 0 0 0 0 0 0
Nghost:        3596.00 ave        3596 max        3596 min
Histogram: 1 0 0 0 0 0 0 0 0 0
Neighs:        86432.0 ave       86432 max       86432 min
Histogram: 1 0 0 0 0 0 0 0 0 0

Total # of neighbors = 86432
Ave neighs/atom = 40.464419
Ave special neighs/atom = 2.1217228
Neighbor list builds = 100
Dangerous builds = 0
Hybrid pair style last /omp style lj/gromacs/coul/gromacs
Last active /omp style is improper_style harmonic/omp
Setting up r-RESPA/omp run ...
  Unit style    : real
  Current step  : 0
  Time steps    : 1:1.25 2:2.5 3:5 4:10
  r-RESPA fixes :
Per MPI rank memory allocation (min/avg/max) = 28.96 | 28.96 | 28.96 Mbytes
Step E_vdwl Density PotEng 
       0     20076.18   0.34824463    20470.293 
     100    30754.313   0.38690626    31185.583 
Loop time of 0.268073 on 8 procs for 100 steps with 2436 atoms

Performance: 322.300 ns/day, 0.074 hours/ns, 373.032 timesteps/s
797.4% CPU use with 1 MPI tasks x 8 OpenMP threads

MPI task timing breakdown:
Section |  min time  |  avg time  |  max time  |%varavg| %total
---------------------------------------------------------------
Pair    | 0.018248   | 0.018248   | 0.018248   |   0.0 |  6.81
Bond    | 0.02216    | 0.02216    | 0.02216    |   0.0 |  8.27
Neigh   | 0.054648   | 0.054648   | 0.054648   |   0.0 | 20.39
Comm    | 0.095388   | 0.095388   | 0.095388   |   0.0 | 35.58
Output  | 1.3159e-05 | 1.3159e-05 | 1.3159e-05 |   0.0 |  0.00
Modify  | 0.069525   | 0.069525   | 0.069525   |   0.0 | 25.94
Other   |            | 0.008092   |            |       |  3.02

Nlocal:        2436.00 ave        2436 max        2436 min
Histogram: 1 0 0 0 0 0 0 0 0 0
Nghost:        4162.00 ave        4162 max        4162 min
Histogram: 1 0 0 0 0 0 0 0 0 0
Neighs:        110956.0 ave      110956 max      110956 min
Histogram: 1 0 0 0 0 0 0 0 0 0

Total # of neighbors = 110956
Ave neighs/atom = 45.548440
Ave special neighs/atom = 2.1067323
Neighbor list builds = 100
Dangerous builds = 0
Hybrid pair style last /omp style lj/gromacs/coul/gromacs
Last active /omp style is improper_style harmonic/omp
Setting up r-RESPA/omp run ...
  Unit style    : real
  Current step  : 0
  Time steps    : 1:1.25 2:2.5 3:5 4:10
  r-RESPA fixes :
Per MPI rank memory allocation (min/avg/max) = 28.97 | 28.97 | 28.97 Mbytes
Step E_vdwl Density PotEng 
       0    30754.313   0.38690626    31185.583 
     100     37424.91   0.42556789    37890.338 
Loop time of 0.304518 on 8 procs for 100 steps with 2736 atoms

Performance: 283.727 ns/day, 0.085 hours/ns, 328.388 timesteps/s
796.9% CPU use with 1 MPI tasks x 8 OpenMP threads

MPI task timing breakdown:
Section |  min time  |  avg time  |  max time  |%varavg| %total
---------------------------------------------------------------
Pair    | 0.022477   | 0.022477   | 0.022477   |   0.0 |  7.38
Bond    | 0.023849   | 0.023849   | 0.023849   |   0.0 |  7.83
Neigh   | 0.063176   | 0.063176   | 0.063176   |   0.0 | 20.75
Comm    | 0.10562    | 0.10562    | 0.10562    |   0.0 | 34.69
Output  | 1.398e-05  | 1.398e-05  | 1.398e-05  |   0.0 |  0.00
Modify  | 0.080244   | 0.080244   | 0.080244   |   0.0 | 26.35
Other   |            | 0.009136   |            |       |  3.00

Nlocal:        2736.00 ave        2736 max        2736 min
Histogram: 1 0 0 0 0 0 0 0 0 0
Nghost:        4743.00 ave        4743 max        4743 min
Histogram: 1 0 0 0 0 0 0 0 0 0
Neighs:        138282.0 ave      138282 max      138282 min
Histogram: 1 0 0 0 0 0 0 0 0 0

Total # of neighbors = 138282
Ave neighs/atom = 50.541667
Ave special neighs/atom = 2.0950292
Neighbor list builds = 100
Dangerous builds = 0
Hybrid pair style last /omp style lj/gromacs/coul/gromacs
Last active /omp style is improper_style harmonic/omp
Setting up r-RESPA/omp run ...
  Unit style    : real
  Current step  : 0
  Time steps    : 1:1.25 2:2.5 3:5 4:10
  r-RESPA fixes :
Per MPI rank memory allocation (min/avg/max) = 28.99 | 28.99 | 28.99 Mbytes
Step E_vdwl Density PotEng 
       0     37424.91   0.42556789    37890.338 
     100    53276.062   0.46422952    53799.179 
Loop time of 0.340078 on 8 procs for 100 steps with 3036 atoms

Performance: 254.059 ns/day, 0.094 hours/ns, 294.050 timesteps/s
798.0% CPU use with 1 MPI tasks x 8 OpenMP threads

MPI task timing breakdown:
Section |  min time  |  avg time  |  max time  |%varavg| %total
---------------------------------------------------------------
Pair    | 0.026836   | 0.026836   | 0.026836   |   0.0 |  7.89
Bond    | 0.025629   | 0.025629   | 0.025629   |   0.0 |  7.54
Neigh   | 0.072237   | 0.072237   | 0.072237   |   0.0 | 21.24
Comm    | 0.11626    | 0.11626    | 0.11626    |   0.0 | 34.19
Output  | 1.461e-05  | 1.461e-05  | 1.461e-05  |   0.0 |  0.00
Modify  | 0.089003   | 0.089003   | 0.089003   |   0.0 | 26.17
Other   |            | 0.0101     |            |       |  2.97

Nlocal:        3036.00 ave        3036 max        3036 min
Histogram: 1 0 0 0 0 0 0 0 0 0
Nghost:        5353.00 ave        5353 max        5353 min
Histogram: 1 0 0 0 0 0 0 0 0 0
Neighs:        168590.0 ave      168590 max      168590 min
Histogram: 1 0 0 0 0 0 0 0 0 0

Total # of neighbors = 168590
Ave neighs/atom = 55.530303
Ave special neighs/atom = 2.0856390
Neighbor list builds = 100
Dangerous builds = 0
Hybrid pair style last /omp style lj/gromacs/coul/gromacs
Last active /omp style is improper_style harmonic/omp
Setting up r-RESPA/omp run ...
  Unit style    : real
  Current step  : 0
  Time steps    : 1:1.25 2:2.5 3:5 4:10
  r-RESPA fixes :
Per MPI rank memory allocation (min/avg/max) = 29.00 | 29.00 | 29.00 Mbytes
Step E_vdwl Density PotEng 
       0    53276.062   0.46422952    53799.179 
     100    68635.379   0.50289115    69158.427 
Loop time of 0.379096 on 8 procs for 100 steps with 3336 atoms

Performance: 227.911 ns/day, 0.105 hours/ns, 263.785 timesteps/s
794.0% CPU use with 1 MPI tasks x 8 OpenMP threads

MPI task timing breakdown:
Section |  min time  |  avg time  |  max time  |%varavg| %total
---------------------------------------------------------------
Pair    | 0.031337   | 0.031337   | 0.031337   |   0.0 |  8.27
Bond    | 0.027427   | 0.027427   | 0.027427   |   0.0 |  7.23
Neigh   | 0.082666   | 0.082666   | 0.082666   |   0.0 | 21.81
Comm    | 0.12759    | 0.12759    | 0.12759    |   0.0 | 33.66
Output  | 1.768e-05  | 1.768e-05  | 1.768e-05  |   0.0 |  0.00
Modify  | 0.098907   | 0.098907   | 0.098907   |   0.0 | 26.09
Other   |            | 0.01115    |            |       |  2.94

Nlocal:        3336.00 ave        3336 max        3336 min
Histogram: 1 0 0 0 0 0 0 0 0 0
Nghost:        5859.00 ave        5859 max        5859 min
Histogram: 1 0 0 0 0 0 0 0 0 0
Neighs:        203408.0 ave      203408 max      203408 min
Histogram: 1 0 0 0 0 0 0 0 0 0

Total # of neighbors = 203408
Ave neighs/atom = 60.973621
Ave special neighs/atom = 2.0779376
Neighbor list builds = 100
Dangerous builds = 0
Hybrid pair style last /omp style lj/gromacs/coul/gromacs
Last active /omp style is improper_style harmonic/omp
Setting up r-RESPA/omp run ...
  Unit style    : real
  Current step  : 0
  Time steps    : 1:1.25 2:2.5 3:5 4:10
  r-RESPA fixes :
Per MPI rank memory allocation (min/avg/max) = 29.01 | 29.01 | 29.01 Mbytes
Step E_vdwl Density PotEng 
       0    68635.379   0.50289115    69158.427 
     100    95971.322   0.54155278    96504.856 
Loop time of 0.41814 on 8 procs for 100 steps with 3636 atoms

Performance: 206.630 ns/day, 0.116 hours/ns, 239.155 timesteps/s
798.2% CPU use with 1 MPI tasks x 8 OpenMP threads

MPI task timing breakdown:
Section |  min time  |  avg time  |  max time  |%varavg| %total
---------------------------------------------------------------
Pair    | 0.036544   | 0.036544   | 0.036544   |   0.0 |  8.74
Bond    | 0.028909   | 0.028909   | 0.028909   |   0.0 |  6.91
Neigh   | 0.093249   | 0.093249   | 0.093249   |   0.0 | 22.30
Comm    | 0.13739    | 0.13739    | 0.13739    |   0.0 | 32.86
Output  | 1.624e-05  | 1.624e-05  | 1.624e-05  |   0.0 |  0.00
Modify  | 0.10995    | 0.10995    | 0.10995    |   0.0 | 26.30
Other   |            | 0.01208    |            |       |  2.89

Nlocal:        3636.00 ave        3636 max        3636 min
Histogram: 1 0 0 0 0 0 0 0 0 0
Nghost:        6454.00 ave        6454 max        6454 min
Histogram: 1 0 0 0 0 0 0 0 0 0
Neighs:        241926.0 ave      241926 max      241926 min
Histogram: 1 0 0 0 0 0 0 0 0 0

Total # of neighbors = 241926
Ave neighs/atom = 66.536304
Ave special neighs/atom = 2.0715072
Neighbor list builds = 100
Dangerous builds = 0
Hybrid pair style last /omp style lj/gromacs/coul/gromacs
Last active /omp style is improper_style harmonic/omp
Setting up r-RESPA/omp run ...
  Unit style    : real
  Current step  : 0
  Time steps    : 1:1.25 2:2.5 3:5 4:10
  r-RESPA fixes :
Per MPI rank memory allocation (min/avg/max) = 29.04 | 29.04 | 29.04 Mbytes
Step E_vdwl Density PotEng 
       0    95971.322   0.54155278    96504.856 
     100    101906.05   0.58021441    102489.05 
Loop time of 0.461877 on 8 procs for 100 steps with 3936 atoms

Performance: 187.063 ns/day, 0.128 hours/ns, 216.508 timesteps/s
798.5% CPU use with 1 MPI tasks x 8 OpenMP threads

MPI task timing breakdown:
Section |  min time  |  avg time  |  max time  |%varavg| %total
---------------------------------------------------------------
Pair    | 0.042952   | 0.042952   | 0.042952   |   0.0 |  9.30
Bond    | 0.030937   | 0.030937   | 0.030937   |   0.0 |  6.70
Neigh   | 0.10479    | 0.10479    | 0.10479    |   0.0 | 22.69
Comm    | 0.14958    | 0.14958    | 0.14958    |   0.0 | 32.38
Output  | 1.693e-05  | 1.693e-05  | 1.693e-05  |   0.0 |  0.00
Modify  | 0.12041    | 0.12041    | 0.12041    |   0.0 | 26.07
Other   |            | 0.01319    |            |       |  2.86

Nlocal:        3936.00 ave        3936 max        3936 min
Histogram: 1 0 0 0 0 0 0 0 0 0
Nghost:        7069.00 ave        7069 max        7069 min
Histogram: 1 0 0 0 0 0 0 0 0 0
Neighs:        283034.0 ave      283034 max      283034 min
Histogram: 1 0 0 0 0 0 0 0 0 0

Total # of neighbors = 283034
Ave neighs/atom = 71.909045
Ave special neighs/atom = 2.0660569
Neighbor list builds = 100
Dangerous builds = 0
Hybrid pair style last /omp style lj/gromacs/coul/gromacs
Last active /omp style is improper_style harmonic/omp
Setting up r-RESPA/omp run ...
  Unit style    : real
  Current step  : 0
  Time steps    : 1:1.25 2:2.5 3:5 4:10
  r-RESPA fixes :
Per MPI rank memory allocation (min/avg/max) = 29.05 | 29.05 | 29.05 Mbytes
Step E_vdwl Density PotEng 
       0    101906.05   0.58021441    102489.05 
     100    130304.36   0.61887604    130940.89 
Loop time of 0.507682 on 8 procs for 100 steps with 4236 atoms

Performance: 170.185 ns/day, 0.141 hours/ns, 196.974 timesteps/s
798.3% CPU use with 1 MPI tasks x 8 OpenMP threads

MPI task timing breakdown:
Section |  min time  |  avg time  |  max time  |%varavg| %total
---------------------------------------------------------------
Pair    | 0.049234   | 0.049234   | 0.049234   |   0.0 |  9.70
Bond    | 0.032727   | 0.032727   | 0.032727   |   0.0 |  6.45
Neigh   | 0.11678    | 0.11678    | 0.11678    |   0.0 | 23.00
Comm    | 0.16091    | 0.16091    | 0.16091    |   0.0 | 31.69
Output  | 1.817e-05  | 1.817e-05  | 1.817e-05  |   0.0 |  0.00
Modify  | 0.13385    | 0.13385    | 0.13385    |   0.0 | 26.37
Other   |            | 0.01416    |            |       |  2.79

Nlocal:        4236.00 ave        4236 max        4236 min
Histogram: 1 0 0 0 0 0 0 0 0 0
Nghost:        7723.00 ave        7723 max        7723 min
Histogram: 1 0 0 0 0 0 0 0 0 0
Neighs:        327942.0 ave      327942 max      327942 min
Histogram: 1 0 0 0 0 0 0 0 0 0

Total # of neighbors = 327942
Ave neighs/atom = 77.417847
Ave special neighs/atom = 2.0613787
Neighbor list builds = 100
Dangerous builds = 0
Hybrid pair style last /omp style lj/gromacs/coul/gromacs
Last active /omp style is improper_style harmonic/omp
Setting up r-RESPA/omp run ...
  Unit style    : real
  Current step  : 0
  Time steps    : 1:1.25 2:2.5 3:5 4:10
  r-RESPA fixes :
Per MPI rank memory allocation (min/avg/max) = 29.07 | 29.07 | 29.07 Mbytes
Step E_vdwl Density PotEng 
       0    130304.36   0.61887604    130940.89 
     100    151621.75   0.65753767    152308.63 
Loop time of 0.564513 on 8 procs for 100 steps with 4536 atoms

Performance: 153.052 ns/day, 0.157 hours/ns, 177.144 timesteps/s
797.9% CPU use with 1 MPI tasks x 8 OpenMP threads

MPI task timing breakdown:
Section |  min time  |  avg time  |  max time  |%varavg| %total
---------------------------------------------------------------
Pair    | 0.056465   | 0.056465   | 0.056465   |   0.0 | 10.00
Bond    | 0.034778   | 0.034778   | 0.034778   |   0.0 |  6.16
Neigh   | 0.1311     | 0.1311     | 0.1311     |   0.0 | 23.22
Comm    | 0.17472    | 0.17472    | 0.17472    |   0.0 | 30.95
Output  | 1.877e-05  | 1.877e-05  | 1.877e-05  |   0.0 |  0.00
Modify  | 0.15089    | 0.15089    | 0.15089    |   0.0 | 26.73
Other   |            | 0.01653    |            |       |  2.93

Nlocal:        4536.00 ave        4536 max        4536 min
Histogram: 1 0 0 0 0 0 0 0 0 0
Nghost:        8316.00 ave        8316 max        8316 min
Histogram: 1 0 0 0 0 0 0 0 0 0
Neighs:        376719.0 ave      376719 max      376719 min
Histogram: 1 0 0 0 0 0 0 0 0 0

Total # of neighbors = 376719
Ave neighs/atom = 83.050926
Ave special neighs/atom = 2.0573192
Neighbor list builds = 100
Dangerous builds = 0
Hybrid pair style last /omp style lj/gromacs/coul/gromacs
Last active /omp style is improper_style harmonic/omp
Setting up r-RESPA/omp run ...
  Unit style    : real
  Current step  : 0
  Time steps    : 1:1.25 2:2.5 3:5 4:10
  r-RESPA fixes :
Per MPI rank memory allocation (min/avg/max) = 29.08 | 29.08 | 29.08 Mbytes
Step E_vdwl Density PotEng 
       0    151621.75   0.65753767    152308.63 
     100    164898.59    0.6961993    165624.18 
Loop time of 0.602149 on 8 procs for 100 steps with 4836 atoms

Performance: 143.486 ns/day, 0.167 hours/ns, 166.072 timesteps/s
798.4% CPU use with 1 MPI tasks x 8 OpenMP threads

MPI task timing breakdown:
Section |  min time  |  avg time  |  max time  |%varavg| %total
---------------------------------------------------------------
Pair    | 0.063399   | 0.063399   | 0.063399   |   0.0 | 10.53
Bond    | 0.036363   | 0.036363   | 0.036363   |   0.0 |  6.04
Neigh   | 0.14206    | 0.14206    | 0.14206    |   0.0 | 23.59
Comm    | 0.18216    | 0.18216    | 0.18216    |   0.0 | 30.25
Output  | 1.944e-05  | 1.944e-05  | 1.944e-05  |   0.0 |  0.00
Modify  | 0.16182    | 0.16182    | 0.16182    |   0.0 | 26.87
Other   |            | 0.01632    |            |       |  2.71

Nlocal:        4836.00 ave        4836 max        4836 min
Histogram: 1 0 0 0 0 0 0 0 0 0
Nghost:        8869.00 ave        8869 max        8869 min
Histogram: 1 0 0 0 0 0 0 0 0 0
Neighs:        428158.0 ave      428158 max      428158 min
Histogram: 1 0 0 0 0 0 0 0 0 0

Total # of neighbors = 428158
Ave neighs/atom = 88.535567
Ave special neighs/atom = 2.0537634
Neighbor list builds = 100
Dangerous builds = 0
Hybrid pair style last /omp style lj/gromacs/coul/gromacs
Last active /omp style is improper_style harmonic/omp
Setting up r-RESPA/omp run ...
  Unit style    : real
  Current step  : 0
  Time steps    : 1:1.25 2:2.5 3:5 4:10
  r-RESPA fixes :
Per MPI rank memory allocation (min/avg/max) = 29.10 | 29.10 | 29.10 Mbytes
Step E_vdwl Density PotEng 
       0    164898.59    0.6961993    165624.18 
     100    187311.26   0.73486093    188077.53 
Loop time of 0.64616 on 8 procs for 100 steps with 5136 atoms

Performance: 133.713 ns/day, 0.179 hours/ns, 154.760 timesteps/s
798.1% CPU use with 1 MPI tasks x 8 OpenMP threads

MPI task timing breakdown:
Section |  min time  |  avg time  |  max time  |%varavg| %total
---------------------------------------------------------------
Pair    | 0.072215   | 0.072215   | 0.072215   |   0.0 | 11.18
Bond    | 0.038152   | 0.038152   | 0.038152   |   0.0 |  5.90
Neigh   | 0.15446    | 0.15446    | 0.15446    |   0.0 | 23.90
Comm    | 0.19363    | 0.19363    | 0.19363    |   0.0 | 29.97
Output  | 2.043e-05  | 2.043e-05  | 2.043e-05  |   0.0 |  0.00
Modify  | 0.17033    | 0.17033    | 0.17033    |   0.0 | 26.36
Other   |            | 0.01736    |            |       |  2.69

Nlocal:        5136.00 ave        5136 max        5136 min
Histogram: 1 0 0 0 0 0 0 0 0 0
Nghost:        9549.00 ave        9549 max        9549 min
Histogram: 1 0 0 0 0 0 0 0 0 0
Neighs:        483786.0 ave      483786 max      483786 min
Histogram: 1 0 0 0 0 0 0 0 0 0

Total # of neighbors = 483786
Ave neighs/atom = 94.195093
Ave special neighs/atom = 2.0506231
Neighbor list builds = 100
Dangerous builds = 0
Hybrid pair style last /omp style lj/gromacs/coul/gromacs
Last active /omp style is improper_style harmonic/omp
Setting up r-RESPA/omp run ...
  Unit style    : real
  Current step  : 0
  Time steps    : 1:1.25 2:2.5 3:5 4:10
  r-RESPA fixes :
Per MPI rank memory allocation (min/avg/max) = 29.11 | 29.11 | 29.11 Mbytes
Step E_vdwl Density PotEng 
       0    187311.26   0.73486093    188077.53 
     100    210926.99   0.77352256    211740.38 
Loop time of 0.702118 on 8 procs for 100 steps with 5436 atoms

Performance: 123.056 ns/day, 0.195 hours/ns, 142.426 timesteps/s
797.8% CPU use with 1 MPI tasks x 8 OpenMP threads

MPI task timing breakdown:
Section |  min time  |  avg time  |  max time  |%varavg| %total
---------------------------------------------------------------
Pair    | 0.080278   | 0.080278   | 0.080278   |   0.0 | 11.43
Bond    | 0.040134   | 0.040134   | 0.040134   |   0.0 |  5.72
Neigh   | 0.16803    | 0.16803    | 0.16803    |   0.0 | 23.93
Comm    | 0.2062     | 0.2062     | 0.2062     |   0.0 | 29.37
Output  | 2.158e-05  | 2.158e-05  | 2.158e-05  |   0.0 |  0.00
Modify  | 0.18909    | 0.18909    | 0.18909    |   0.0 | 26.93
Other   |            | 0.01836    |            |       |  2.62

Nlocal:        5436.00 ave        5436 max        5436 min
Histogram: 1 0 0 0 0 0 0 0 0 0
Nghost:        10174.0 ave       10174 max       10174 min
Histogram: 1 0 0 0 0 0 0 0 0 0
Neighs:        543361.0 ave      543361 max      543361 min
Histogram: 1 0 0 0 0 0 0 0 0 0

Total # of neighbors = 543361
Ave neighs/atom = 99.956034
Ave special neighs/atom = 2.0478293
Neighbor list builds = 100
Dangerous builds = 0
Hybrid pair style last /omp style lj/gromacs/coul/gromacs
Last active /omp style is improper_style harmonic/omp
Setting up r-RESPA/omp run ...
  Unit style    : real
  Current step  : 0
  Time steps    : 1:1.25 2:2.5 3:5 4:10
  r-RESPA fixes :
Per MPI rank memory allocation (min/avg/max) = 29.13 | 29.13 | 29.13 Mbytes
Step E_vdwl Density PotEng 
       0    210926.99   0.77352256    211740.38 
     100    241779.47   0.81218419    242622.45 
Loop time of 0.767521 on 8 procs for 100 steps with 5736 atoms

Performance: 112.570 ns/day, 0.213 hours/ns, 130.290 timesteps/s
798.4% CPU use with 1 MPI tasks x 8 OpenMP threads

MPI task timing breakdown:
Section |  min time  |  avg time  |  max time  |%varavg| %total
---------------------------------------------------------------
Pair    | 0.090125   | 0.090125   | 0.090125   |   0.0 | 11.74
Bond    | 0.042038   | 0.042038   | 0.042038   |   0.0 |  5.48
Neigh   | 0.18394    | 0.18394    | 0.18394    |   0.0 | 23.97
Comm    | 0.22165    | 0.22165    | 0.22165    |   0.0 | 28.88
Output  | 3.8189e-05 | 3.8189e-05 | 3.8189e-05 |   0.0 |  0.00
Modify  | 0.20994    | 0.20994    | 0.20994    |   0.0 | 27.35
Other   |            | 0.01979    |            |       |  2.58

Nlocal:        5736.00 ave        5736 max        5736 min
Histogram: 1 0 0 0 0 0 0 0 0 0
Nghost:        10791.0 ave       10791 max       10791 min
Histogram: 1 0 0 0 0 0 0 0 0 0
Neighs:        605775.0 ave      605775 max      605775 min
Histogram: 1 0 0 0 0 0 0 0 0 0

Total # of neighbors = 605775
Ave neighs/atom = 105.60931
Ave special neighs/atom = 2.0453278
Neighbor list builds = 100
Dangerous builds = 0
Hybrid pair style last /omp style lj/gromacs/coul/gromacs
Last active /omp style is improper_style harmonic/omp
Setting up r-RESPA/omp run ...
  Unit style    : real
  Current step  : 0
  Time steps    : 1:1.25 2:2.5 3:5 4:10
  r-RESPA fixes :
Per MPI rank memory allocation (min/avg/max) = 50.39 | 50.39 | 50.39 Mbytes
Step E_vdwl Density PotEng 
       0    241779.47   0.81218419    242622.45 
     100    267227.66   0.85084582    268124.33 
Loop time of 0.809369 on 8 procs for 100 steps with 6036 atoms

Performance: 106.750 ns/day, 0.225 hours/ns, 123.553 timesteps/s
797.6% CPU use with 1 MPI tasks x 8 OpenMP threads

MPI task timing breakdown:
Section |  min time  |  avg time  |  max time  |%varavg| %total
---------------------------------------------------------------
Pair    | 0.099809   | 0.099809   | 0.099809   |   0.0 | 12.33
Bond    | 0.043624   | 0.043624   | 0.043624   |   0.0 |  5.39
Neigh   | 0.19955    | 0.19955    | 0.19955    |   0.0 | 24.65
Comm    | 0.22884    | 0.22884    | 0.22884    |   0.0 | 28.27
Output  | 2.373e-05  | 2.373e-05  | 2.373e-05  |   0.0 |  0.00
Modify  | 0.2171     | 0.2171     | 0.2171     |   0.0 | 26.82
Other   |            | 0.02042    |            |       |  2.52

Nlocal:        6036.00 ave        6036 max        6036 min
Histogram: 1 0 0 0 0 0 0 0 0 0
Nghost:        11463.0 ave       11463 max       11463 min
Histogram: 1 0 0 0 0 0 0 0 0 0
Neighs:        671381.0 ave      671381 max      671381 min
Histogram: 1 0 0 0 0 0 0 0 0 0

Total # of neighbors = 671381
Ave neighs/atom = 111.22946
Ave special neighs/atom = 2.0430749
Neighbor list builds = 100
Dangerous builds = 0
Hybrid pair style last /omp style lj/gromacs/coul/gromacs
Last active /omp style is improper_style harmonic/omp
Setting up r-RESPA/omp run ...
  Unit style    : real
  Current step  : 0
  Time steps    : 1:1.25 2:2.5 3:5 4:10
  r-RESPA fixes :
Per MPI rank memory allocation (min/avg/max) = 50.41 | 50.41 | 50.41 Mbytes
Step E_vdwl Density PotEng 
       0    267227.66   0.85084582    268124.33 
     100    294372.12   0.88950745    295282.02 
Loop time of 0.885703 on 8 procs for 100 steps with 6336 atoms

Performance: 97.550 ns/day, 0.246 hours/ns, 112.905 timesteps/s
798.9% CPU use with 1 MPI tasks x 8 OpenMP threads

MPI task timing breakdown:
Section |  min time  |  avg time  |  max time  |%varavg| %total
---------------------------------------------------------------
Pair    | 0.11095    | 0.11095    | 0.11095    |   0.0 | 12.53
Bond    | 0.045226   | 0.045226   | 0.045226   |   0.0 |  5.11
Neigh   | 0.21676    | 0.21676    | 0.21676    |   0.0 | 24.47
Comm    | 0.23923    | 0.23923    | 0.23923    |   0.0 | 27.01
Output  | 0.0003191  | 0.0003191  | 0.0003191  |   0.0 |  0.04
Modify  | 0.25159    | 0.25159    | 0.25159    |   0.0 | 28.41
Other   |            | 0.02162    |            |       |  2.44

Nlocal:        6336.00 ave        6336 max        6336 min
Histogram: 1 0 0 0 0 0 0 0 0 0
Nghost:        11992.0 ave       11992 max       11992 min
Histogram: 1 0 0 0 0 0 0 0 0 0
Neighs:        741153.0 ave      741153 max      741153 min
Histogram: 1 0 0 0 0 0 0 0 0 0

Total # of neighbors = 741153
Ave neighs/atom = 116.97491
Ave special neighs/atom = 2.0410354
Neighbor list builds = 100
Dangerous builds = 0
Hybrid pair style last /omp style lj/gromacs/coul/gromacs
Last active /omp style is improper_style harmonic/omp
Setting up r-RESPA/omp run ...
  Unit style    : real
  Current step  : 0
  Time steps    : 1:1.25 2:2.5 3:5 4:10
  r-RESPA fixes :
Per MPI rank memory allocation (min/avg/max) = 52.71 | 52.71 | 52.71 Mbytes
Step E_vdwl Density PotEng 
       0    294372.12   0.88950745    295282.02 
     100    340994.76   0.92816908    341897.34 
Loop time of 0.947759 on 8 procs for 100 steps with 6636 atoms

Performance: 91.162 ns/day, 0.263 hours/ns, 105.512 timesteps/s
795.2% CPU use with 1 MPI tasks x 8 OpenMP threads

MPI task timing breakdown:
Section |  min time  |  avg time  |  max time  |%varavg| %total
---------------------------------------------------------------
Pair    | 0.12302    | 0.12302    | 0.12302    |   0.0 | 12.98
Bond    | 0.047175   | 0.047175   | 0.047175   |   0.0 |  4.98
Neigh   | 0.23339    | 0.23339    | 0.23339    |   0.0 | 24.63
Comm    | 0.25106    | 0.25106    | 0.25106    |   0.0 | 26.49
Output  | 2.543e-05  | 2.543e-05  | 2.543e-05  |   0.0 |  0.00
Modify  | 0.27033    | 0.27033    | 0.27033    |   0.0 | 28.52
Other   |            | 0.02276    |            |       |  2.40

Nlocal:        6636.00 ave        6636 max        6636 min
Histogram: 1 0 0 0 0 0 0 0 0 0
Nghost:        12600.0 ave       12600 max       12600 min
Histogram: 1 0 0 0 0 0 0 0 0 0
Neighs:        814319.0 ave      814319 max      814319 min
Histogram: 1 0 0 0 0 0 0 0 0 0

Total # of neighbors = 814319
Ave neighs/atom = 122.71233
Ave special neighs/atom = 2.0391802
Neighbor list builds = 100
Dangerous builds = 0
Hybrid pair style last /omp style lj/gromacs/coul/gromacs
Last active /omp style is improper_style harmonic/omp
Setting up r-RESPA/omp run ...
  Unit style    : real
  Current step  : 0
  Time steps    : 1:1.25 2:2.5 3:5 4:10
  r-RESPA fixes :
Per MPI rank memory allocation (min/avg/max) = 56.55 | 56.55 | 56.55 Mbytes
Step E_vdwl Density PotEng 
       0    340994.76   0.92816908    341897.34 
     100    387015.63   0.96683071    387910.88 
Loop time of 1.01069 on 8 procs for 100 steps with 6936 atoms

Performance: 85.487 ns/day, 0.281 hours/ns, 98.943 timesteps/s
798.1% CPU use with 1 MPI tasks x 8 OpenMP threads

MPI task timing breakdown:
Section |  min time  |  avg time  |  max time  |%varavg| %total
---------------------------------------------------------------
Pair    | 0.13435    | 0.13435    | 0.13435    |   0.0 | 13.29
Bond    | 0.048904   | 0.048904   | 0.048904   |   0.0 |  4.84
Neigh   | 0.2516     | 0.2516     | 0.2516     |   0.0 | 24.89
Comm    | 0.26116    | 0.26116    | 0.26116    |   0.0 | 25.84
Output  | 2.632e-05  | 2.632e-05  | 2.632e-05  |   0.0 |  0.00
Modify  | 0.29091    | 0.29091    | 0.29091    |   0.0 | 28.78
Other   |            | 0.02373    |            |       |  2.35

Nlocal:        6936.00 ave        6936 max        6936 min
Histogram: 1 0 0 0 0 0 0 0 0 0
Nghost:        13170.0 ave       13170 max       13170 min
Histogram: 1 0 0 0 0 0 0 0 0 0
Neighs:        890655.0 ave      890655 max      890655 min
Histogram: 1 0 0 0 0 0 0 0 0 0

Total # of neighbors = 890655
Ave neighs/atom = 128.41047
Ave special neighs/atom = 2.0374856
Neighbor list builds = 100
Dangerous builds = 0
Hybrid pair style last /omp style lj/gromacs/coul/gromacs
Last active /omp style is improper_style harmonic/omp
Setting up r-RESPA/omp run ...
  Unit style    : real
  Current step  : 0
  Time steps    : 1:1.25 2:2.5 3:5 4:10
  r-RESPA fixes :
Per MPI rank memory allocation (min/avg/max) = 56.56 | 56.56 | 56.56 Mbytes
Step E_vdwl Density PotEng 
       0    387015.63   0.96683071    387910.88 
     100    422702.31    1.0054923    423626.09 
Loop time of 1.09944 on 8 procs for 100 steps with 7236 atoms

Performance: 78.586 ns/day, 0.305 hours/ns, 90.956 timesteps/s
793.7% CPU use with 1 MPI tasks x 8 OpenMP threads

MPI task timing breakdown:
Section |  min time  |  avg time  |  max time  |%varavg| %total
---------------------------------------------------------------
Pair    | 0.14656    | 0.14656    | 0.14656    |   0.0 | 13.33
Bond    | 0.05078    | 0.05078    | 0.05078    |   0.0 |  4.62
Neigh   | 0.27012    | 0.27012    | 0.27012    |   0.0 | 24.57
Comm    | 0.27328    | 0.27328    | 0.27328    |   0.0 | 24.86
Output  | 2.9239e-05 | 2.9239e-05 | 2.9239e-05 |   0.0 |  0.00
Modify  | 0.33372    | 0.33372    | 0.33372    |   0.0 | 30.35
Other   |            | 0.02494    |            |       |  2.27

Nlocal:        7236.00 ave        7236 max        7236 min
Histogram: 1 0 0 0 0 0 0 0 0 0
Nghost:        13837.0 ave       13837 max       13837 min
Histogram: 1 0 0 0 0 0 0 0 0 0
Neighs:        971192.0 ave      971192 max      971192 min
Histogram: 1 0 0 0 0 0 0 0 0 0

Total # of neighbors = 971192
Ave neighs/atom = 134.21669
Ave special neighs/atom = 2.0359315
Neighbor list builds = 100
Dangerous builds = 0
Setting atom values ...
  2300 settings made for mol
Setting atom values ...
  2300 settings made for mol
Setting atom values ...
  2300 settings made for mol
Final system Density: 1.0054923380925469001
System init for write_data ...
Hybrid pair style last /omp style lj/gromacs/coul/gromacs
Last active /omp style is improper_style harmonic/omp
*******Deposit_again ALL DONE****
Respa levels:
  1 = bond
  2 = angle
  3 = dihedral improper
  4 = pair kspace
**************box/relax start***************
321 atoms in group all_mol
Hybrid pair style last /omp style lj/gromacs/coul/gromacs
Last active /omp style is improper_style harmonic/omp
Setting up cg style minimization ...
  Unit style    : real
  Current step  : 100
Per MPI rank memory allocation (min/avg/max) = 55.83 | 55.83 | 55.83 Mbytes
Step Temp PotEng TotEng Press Volume Density 
     100            0    423626.09    423626.09    401863.64    309244.08    1.0054923 
    1000            0   -25434.696   -25434.696   -1706.7572    309244.08    1.0054923 
    2000            0   -26004.247   -26004.247   -1425.7273    309244.08    1.0054923 
    3000            0   -26279.739   -26279.739   -1272.4819    309244.08    1.0054923 
    4000            0   -26421.697   -26421.697   -1188.5873    309244.08    1.0054923 
    5000            0    -26498.92    -26498.92   -1176.2585    309244.08    1.0054923 
    5770            0   -26539.066   -26539.066   -1148.7185    309244.08    1.0054923 
Loop time of 35.3913 on 8 procs for 5670 steps with 7236 atoms

798.7% CPU use with 1 MPI tasks x 8 OpenMP threads

Minimization stats:
  Stopping criterion = linesearch alpha is zero
  Energy initial, next-to-last, final = 
      423626.091014304  -26539.0663481532  -26539.0663481532
  Force two-norm initial, final = 216284.60 3.4671875
  Force max component initial, final = 31549.592 0.78160916
  Final line search alpha, max atom move = 7.5958464e-10 5.9369831e-10
  Iterations, force evaluations = 5670 11288

MPI task timing breakdown:
Section |  min time  |  avg time  |  max time  |%varavg| %total
---------------------------------------------------------------
Pair    | 28.896     | 28.896     | 28.896     |   0.0 | 81.65
Bond    | 2.0927     | 2.0927     | 2.0927     |   0.0 |  5.91
Neigh   | 0.67318    | 0.67318    | 0.67318    |   0.0 |  1.90
Comm    | 1.2596     | 1.2596     | 1.2596     |   0.0 |  3.56
Output  | 0.00025253 | 0.00025253 | 0.00025253 |   0.0 |  0.00
Modify  | 1.503      | 1.503      | 1.503      |   0.0 |  4.25
Other   |            | 0.9669     |            |       |  2.73

Nlocal:        7236.00 ave        7236 max        7236 min
Histogram: 1 0 0 0 0 0 0 0 0 0
Nghost:        13881.0 ave       13881 max       13881 min
Histogram: 1 0 0 0 0 0 0 0 0 0
Neighs:    1.03514e+06 ave 1.03514e+06 max 1.03514e+06 min
Histogram: 1 0 0 0 0 0 0 0 0 0

Total # of neighbors = 1035145
Ave neighs/atom = 143.05486
Ave special neighs/atom = 2.0359315
Neighbor list builds = 218
Dangerous builds = 0
Finding SHAKE clusters ...
       0 = # of size 2 clusters
    2300 = # of size 3 clusters
       0 = # of size 4 clusters
       0 = # of frozen angles
  find clusters CPU = 0.001 seconds
Hybrid pair style last /omp style lj/gromacs/coul/gromacs
Last active /omp style is improper_style harmonic/omp
Setting up r-RESPA/omp run ...
  Unit style    : real
  Current step  : 0
  Time steps    : 1:1.25 2:2.5 3:5 4:10
  r-RESPA fixes :
Per MPI rank memory allocation (min/avg/max) = 58.18 | 58.18 | 58.18 Mbytes
Step Temp PotEng TotEng Press Volume Density 
       0    380.67816   -26883.711   -20413.863   -1543.6382    309244.08    1.0054923 
    1000    295.65851   -18430.146   -13405.256    -7.558136    298675.74    1.0410707 
    2000    299.64892   -18597.072   -13504.363    -63.63664    290109.49    1.0718111 
    3000    302.27355   -18798.113   -13660.797    66.610722     286136.9    1.0866916 
    4000    305.48017   -18762.285   -13570.471   -12.076004     288401.5    1.0781586 
    5000    305.78247   -18676.603   -13479.651    13.667974    288681.29    1.0771136 
    6000    308.06171   -18693.822   -13458.133    25.835449    288547.69    1.0776124 
    7000    300.06144   -18739.485   -13639.765     52.74922    287022.86    1.0833373 
    8000     304.1912   -18896.108   -13726.201   -5.2670661    286299.84    1.0860731 
    9000    294.29404    -18752.18   -13750.481    104.47428    286862.19     1.083944 
   10000    301.16566   -18609.182   -13490.695   -25.691419    288986.23     1.075977 
   11000    298.58068   -18785.678   -13711.125    44.048725     287409.2     1.081881 
   12000    298.19669    -18718.36   -13650.333    20.303956    288543.84    1.0776267 
   13000    297.88713   -18797.574   -13734.808   -126.69874    288872.41     1.076401 
   14000    305.80329   -18775.049   -13577.743    38.464945    287801.62    1.0804058 
   15000    296.72203   -18526.491   -13483.527   -60.771224    288859.93    1.0764475 
   16000    299.37583   -18606.789   -13518.722   -26.355354    289403.37    1.0744262 
   17000    301.30466   -18917.323   -13796.474   -12.253478    287581.21    1.0812339 
   18000    299.70565   -18617.774   -13524.101     18.58437     288337.2     1.078399 
   19000    299.77784   -18868.875   -13773.975    52.807787    286553.05    1.0851134 
   20000    300.74735   -18883.702   -13772.325   -43.783494     288160.2    1.0790614 
Loop time of 236.834 on 8 procs for 20000 steps with 7236 atoms

Performance: 72.962 ns/day, 0.329 hours/ns, 84.447 timesteps/s
798.2% CPU use with 1 MPI tasks x 8 OpenMP threads

MPI task timing breakdown:
Section |  min time  |  avg time  |  max time  |%varavg| %total
---------------------------------------------------------------
Pair    | 51.077     | 51.077     | 51.077     |   0.0 | 21.57
Bond    | 10.772     | 10.772     | 10.772     |   0.0 |  4.55
Neigh   | 8.2866     | 8.2866     | 8.2866     |   0.0 |  3.50
Comm    | 52.981     | 52.981     | 52.981     |   0.0 | 22.37
Output  | 0.0011247  | 0.0011247  | 0.0011247  |   0.0 |  0.00
Modify  | 103.79     | 103.79     | 103.79     |   0.0 | 43.82
Other   |            | 9.928      |            |       |  4.19

Nlocal:        7236.00 ave        7236 max        7236 min
Histogram: 1 0 0 0 0 0 0 0 0 0
Nghost:        14033.0 ave       14033 max       14033 min
Histogram: 1 0 0 0 0 0 0 0 0 0
Neighs:    1.03752e+06 ave 1.03752e+06 max 1.03752e+06 min
Histogram: 1 0 0 0 0 0 0 0 0 0

Total # of neighbors = 1037522
Ave neighs/atom = 143.38336
Ave special neighs/atom = 2.0359315
Neighbor list builds = 2595
Dangerous builds = 0
Finding SHAKE clusters ...
       0 = # of size 2 clusters
    2300 = # of size 3 clusters
       0 = # of size 4 clusters
       0 = # of frozen angles
  find clusters CPU = 0.001 seconds
Hybrid pair style last /omp style lj/gromacs/coul/gromacs
Last active /omp style is improper_style harmonic/omp
Setting up r-RESPA/omp run ...
  Unit style    : real
  Current step  : 0
  Time steps    : 1:1.25 2:2.5 3:5 4:10
  r-RESPA fixes :
Per MPI rank memory allocation (min/avg/max) = 58.19 | 58.19 | 58.19 Mbytes
Step Temp PotEng TotEng Press Volume Density 
       0    300.74735   -19034.042   -13922.665    173.38654     288160.2    1.0790614 
    1000    299.53887   -18596.068    -13505.23    -64.20421    288735.44    1.0769116 
    2000    304.25068   -18728.602   -13557.684   -31.540275    288131.62    1.0791684 
    3000    297.92169   -18800.461   -13737.108    -81.48896    286613.58    1.0848842 
    4000    296.37727   -18705.882   -13668.777   -81.121106     287875.2    1.0801297 
    5000    294.62861   -18848.695    -13841.31    -22.45374     286463.3    1.0854534 
    6000    302.15144   -18731.274   -13596.033    12.738353    286857.86    1.0839604 
    7000    299.51089   -18646.868   -13556.505    -12.78047    288310.52    1.0784988 
    8000    302.63572   -18624.948   -13481.477    27.543407    287696.87    1.0807992 
    9000    292.62202   -18658.965   -13685.682    168.38326    286884.33    1.0838604 
   10000    300.70945   -18713.475   -13602.742    77.205814     287594.9    1.0811824 
   11000    308.57645   -18707.806   -13463.369    1.3797042    287865.44    1.0801663 
   12000    296.89105   -18846.306   -13800.469   -105.16512    287956.26    1.0798257 
   13000    300.68906   -18632.333   -13521.946    63.951372    288354.74    1.0783334 
   14000    299.44144   -18689.215   -13600.032   -2.5636689    288032.59    1.0795395 
   15000     300.6479   -18809.353   -13699.666    26.388829    287264.63    1.0824255 
   16000      306.461   -18575.663   -13367.179    98.402532    286513.66    1.0852626 
   17000    301.03433   -18816.776   -13700.521    89.006594    287040.07    1.0832723 
   18000    299.82549   -18741.195   -13645.486   -1.3883851    286965.49    1.0835538 
   19000    299.88824   -18728.196    -13631.42    119.64895    287079.56    1.0831233 
   20000    300.00132   -18630.657   -13531.959   -113.01031     288632.1    1.0772972 
Loop time of 237.673 on 8 procs for 20000 steps with 7236 atoms

Performance: 72.705 ns/day, 0.330 hours/ns, 84.149 timesteps/s
798.3% CPU use with 1 MPI tasks x 8 OpenMP threads

MPI task timing breakdown:
Section |  min time  |  avg time  |  max time  |%varavg| %total
---------------------------------------------------------------
Pair    | 51.223     | 51.223     | 51.223     |   0.0 | 21.55
Bond    | 10.712     | 10.712     | 10.712     |   0.0 |  4.51
Neigh   | 8.2992     | 8.2992     | 8.2992     |   0.0 |  3.49
Comm    | 52.846     | 52.846     | 52.846     |   0.0 | 22.23
Output  | 0.0010273  | 0.0010273  | 0.0010273  |   0.0 |  0.00
Modify  | 104.6      | 104.6      | 104.6      |   0.0 | 44.01
Other   |            | 9.996      |            |       |  4.21

Nlocal:        7236.00 ave        7236 max        7236 min
Histogram: 1 0 0 0 0 0 0 0 0 0
Nghost:        14081.0 ave       14081 max       14081 min
Histogram: 1 0 0 0 0 0 0 0 0 0
Neighs:    1.03695e+06 ave 1.03695e+06 max 1.03695e+06 min
Histogram: 1 0 0 0 0 0 0 0 0 0

Total # of neighbors = 1036947
Ave neighs/atom = 143.30390
Ave special neighs/atom = 2.0359315
Neighbor list builds = 2599
Dangerous builds = 0
Hybrid pair style last /omp style lj/gromacs/coul/gromacs
Last active /omp style is improper_style harmonic/omp
Setting up cg style minimization ...
  Unit style    : real
  Current step  : 0
WARNING: Energy due to 1 extra global DOFs will be included in minimizer energies
Per MPI rank memory allocation (min/avg/max) = 55.69 | 55.69 | 55.69 Mbytes
Step Temp PotEng TotEng Press Volume Density 
       0    236.42122   -18796.386   -13697.688    1893.4241     288632.1    1.0772972 
      26    236.42122   -18810.037   -13711.339    986.56602    290249.91    1.0712925 
Loop time of 0.366861 on 8 procs for 26 steps with 7236 atoms

796.9% CPU use with 1 MPI tasks x 8 OpenMP threads

Minimization stats:
  Stopping criterion = linesearch alpha is zero
  Energy initial, next-to-last, final = 
     -18796.3862648944  -18810.0371869522  -18810.0371869522
  Force two-norm initial, final = 13721.734 2366.1740
  Force max component initial, final = 13713.159 2326.6588
  Final line search alpha, max atom move = 1.2809065e-15 2.9802322e-12
  Iterations, force evaluations = 26 120

MPI task timing breakdown:
Section |  min time  |  avg time  |  max time  |%varavg| %total
---------------------------------------------------------------
Pair    | 0.31397    | 0.31397    | 0.31397    |   0.0 | 85.58
Bond    | 0.01513    | 0.01513    | 0.01513    |   0.0 |  4.12
Neigh   | 0          | 0          | 0          |   0.0 |  0.00
Comm    | 0.007771   | 0.007771   | 0.007771   |   0.0 |  2.12
Output  | 0          | 0          | 0          |   0.0 |  0.00
Modify  | 0.016261   | 0.016261   | 0.016261   |   0.0 |  4.43
Other   |            | 0.01373    |            |       |  3.74

Nlocal:        7236.00 ave        7236 max        7236 min
Histogram: 1 0 0 0 0 0 0 0 0 0
Nghost:        14057.0 ave       14057 max       14057 min
Histogram: 1 0 0 0 0 0 0 0 0 0
Neighs:    1.03729e+06 ave 1.03729e+06 max 1.03729e+06 min
Histogram: 1 0 0 0 0 0 0 0 0 0

Total # of neighbors = 1037290
Ave neighs/atom = 143.35130
Ave special neighs/atom = 2.0359315
Neighbor list builds = 0
Dangerous builds = 0
Hybrid pair style last /omp style lj/gromacs/coul/gromacs
Last active /omp style is improper_style harmonic/omp
Setting up cg style minimization ...
  Unit style    : real
  Current step  : 26
Per MPI rank memory allocation (min/avg/max) = 55.69 | 55.69 | 55.69 Mbytes
Step Temp PotEng TotEng Press Volume Density 
      26    236.42122   -18810.037   -13711.339    986.56602    290249.91    1.0712925 
     530    236.42122   -25956.233   -20857.535   -1670.6645    290249.91    1.0712925 
Loop time of 3.0746 on 8 procs for 504 steps with 7236 atoms

798.8% CPU use with 1 MPI tasks x 8 OpenMP threads

Minimization stats:
  Stopping criterion = max force evaluations
  Energy initial, next-to-last, final = 
     -18810.0371869522  -25955.3054289795  -25956.2331041701
  Force two-norm initial, final = 430.62539 26.716789
  Force max component initial, final = 39.045544 7.6127022
  Final line search alpha, max atom move = 0.0049929567 0.038009893
  Iterations, force evaluations = 504 1001

MPI task timing breakdown:
Section |  min time  |  avg time  |  max time  |%varavg| %total
---------------------------------------------------------------
Pair    | 2.4526     | 2.4526     | 2.4526     |   0.0 | 79.77
Bond    | 0.18407    | 0.18407    | 0.18407    |   0.0 |  5.99
Neigh   | 0.097748   | 0.097748   | 0.097748   |   0.0 |  3.18
Comm    | 0.11745    | 0.11745    | 0.11745    |   0.0 |  3.82
Output  | 0          | 0          | 0          |   0.0 |  0.00
Modify  | 0.13602    | 0.13602    | 0.13602    |   0.0 |  4.42
Other   |            | 0.08668    |            |       |  2.82

Nlocal:        7236.00 ave        7236 max        7236 min
Histogram: 1 0 0 0 0 0 0 0 0 0
Nghost:        14031.0 ave       14031 max       14031 min
Histogram: 1 0 0 0 0 0 0 0 0 0
Neighs:    1.03281e+06 ave 1.03281e+06 max 1.03281e+06 min
Histogram: 1 0 0 0 0 0 0 0 0 0

Total # of neighbors = 1032814
Ave neighs/atom = 142.73273
Ave special neighs/atom = 2.0359315
Neighbor list builds = 31
Dangerous builds = 0
Hybrid pair style last /omp style lj/gromacs/coul/gromacs
Last active /omp style is improper_style harmonic/omp
Setting up cg style minimization ...
  Unit style    : real
  Current step  : 530
WARNING: Energy due to 1 extra global DOFs will be included in minimizer energies
Per MPI rank memory allocation (min/avg/max) = 55.69 | 55.69 | 55.69 Mbytes
Step Temp PotEng TotEng Press Volume Density 
     530    236.42122   -25994.759   -20896.061   -1670.6645    290249.91    1.0712925 
     576    236.42122   -26062.051   -20963.353    402.21209    286772.73    1.0842822 
Loop time of 0.438593 on 8 procs for 46 steps with 7236 atoms

797.6% CPU use with 1 MPI tasks x 8 OpenMP threads

Minimization stats:
  Stopping criterion = linesearch alpha is zero
  Energy initial, next-to-last, final = 
     -25994.7591425963  -26062.0512932221  -26062.0512932221
  Force two-norm initial, final = 31413.174 5178.1313
  Force max component initial, final = 31413.151 5171.6329
  Final line search alpha, max atom move = 2.8813262e-16 1.4901161e-12
  Iterations, force evaluations = 46 142

MPI task timing breakdown:
Section |  min time  |  avg time  |  max time  |%varavg| %total
---------------------------------------------------------------
Pair    | 0.37591    | 0.37591    | 0.37591    |   0.0 | 85.71
Bond    | 0.017905   | 0.017905   | 0.017905   |   0.0 |  4.08
Neigh   | 0          | 0          | 0          |   0.0 |  0.00
Comm    | 0.0084539  | 0.0084539  | 0.0084539  |   0.0 |  1.93
[...]
Histogram: 1 0 0 0 0 0 0 0 0 0

Total # of neighbors = 1218932
Ave neighs/atom = 161.74788
Ave special neighs/atom = 2.0345011
Neighbor list builds = 2
Dangerous builds = 0
Hybrid pair style last /omp style lj/gromacs/coul/gromacs
Last active /omp style is improper_style harmonic/omp
Setting up cg style minimization ...
  Unit style    : real
  Current step  : 8954
WARNING: Energy due to 1 extra global DOFs will be included in minimizer energies
Per MPI rank memory allocation (min/avg/max) = 56.09 | 56.09 | 56.09 Mbytes
Step Temp PotEng TotEng Press Volume Density 
    8954    236.75812   -28686.971   -23369.288    52.632278    269356.78     1.198776 
    8970    236.75812   -28693.122   -23375.439     778.8173    268421.64    1.2029523 
Loop time of 0.211097 on 8 procs for 16 steps with 7536 atoms

798.1% CPU use with 1 MPI tasks x 8 OpenMP threads

Minimization stats:
  Stopping criterion = linesearch alpha is zero
  Energy initial, next-to-last, final = 
     -28686.9705574648  -28693.1224185557  -28693.1224185557
  Force two-norm initial, final = 10015.103 1492.6536
  Force max component initial, final = 10015.101 1490.6917
  Final line search alpha, max atom move = 3.9984556e-15 5.9604645e-12
  Iterations, force evaluations = 16 58

MPI task timing breakdown:
Section |  min time  |  avg time  |  max time  |%varavg| %total
---------------------------------------------------------------
Pair    | 0.18325    | 0.18325    | 0.18325    |   0.0 | 86.81
Bond    | 0.0081217  | 0.0081217  | 0.0081217  |   0.0 |  3.85
Neigh   | 0          | 0          | 0          |   0.0 |  0.00
Comm    | 0.0037685  | 0.0037685  | 0.0037685  |   0.0 |  1.79
Output  | 0          | 0          | 0          |   0.0 |  0.00
Modify  | 0.0084266  | 0.0084266  | 0.0084266  |   0.0 |  3.99
Other   |            | 0.007526   |            |       |  3.57

Nlocal:        7536.00 ave        7536 max        7536 min
Histogram: 1 0 0 0 0 0 0 0 0 0
Nghost:        14964.0 ave       14964 max       14964 min
Histogram: 1 0 0 0 0 0 0 0 0 0
Neighs:    1.21890e+06 ave  1.2189e+06 max  1.2189e+06 min
Histogram: 1 0 0 0 0 0 0 0 0 0

Total # of neighbors = 1218897
Ave neighs/atom = 161.74323
Ave special neighs/atom = 2.0345011
Neighbor list builds = 0
Dangerous builds = 0
Hybrid pair style last /omp style lj/gromacs/coul/gromacs
Last active /omp style is improper_style harmonic/omp
Setting up cg style minimization ...
  Unit style    : real
  Current step  : 8970
Per MPI rank memory allocation (min/avg/max) = 56.09 | 56.09 | 56.09 Mbytes
Step Temp PotEng TotEng Press Volume Density 
    8970    236.75812   -28693.122   -23375.439     778.8173    268421.64    1.2029523 
    9000    236.75812   -28698.635   -23380.952     181.0741    268421.64    1.2029523 
    9470    236.75812   -28714.263    -23396.58     142.4702    268421.64    1.2029523 
Loop time of 3.48338 on 8 procs for 500 steps with 7536 atoms

799.0% CPU use with 1 MPI tasks x 8 OpenMP threads

Minimization stats:
  Stopping criterion = max force evaluations
  Energy initial, next-to-last, final = 
     -28693.1224185557  -28714.2558930861  -28714.2631379861
  Force two-norm initial, final = 76.506084 2.5249757
  Force max component initial, final = 1.5485820 0.59905316
  Final line search alpha, max atom move = 0.048771505 0.029216724
  Iterations, force evaluations = 500 1000

MPI task timing breakdown:
Section |  min time  |  avg time  |  max time  |%varavg| %total
---------------------------------------------------------------
Pair    | 2.9037     | 2.9037     | 2.9037     |   0.0 | 83.36
Bond    | 0.19531    | 0.19531    | 0.19531    |   0.0 |  5.61
Neigh   | 0.035087   | 0.035087   | 0.035087   |   0.0 |  1.01
Comm    | 0.11973    | 0.11973    | 0.11973    |   0.0 |  3.44
Output  | 4.899e-05  | 4.899e-05  | 4.899e-05  |   0.0 |  0.00
Modify  | 0.14199    | 0.14199    | 0.14199    |   0.0 |  4.08
Other   |            | 0.08754    |            |       |  2.51

Nlocal:        7536.00 ave        7536 max        7536 min
Histogram: 1 0 0 0 0 0 0 0 0 0
Nghost:        14949.0 ave       14949 max       14949 min
Histogram: 1 0 0 0 0 0 0 0 0 0
Neighs:    1.22289e+06 ave 1.22289e+06 max 1.22289e+06 min
Histogram: 1 0 0 0 0 0 0 0 0 0

Total # of neighbors = 1222892
Ave neighs/atom = 162.27335
Ave special neighs/atom = 2.0345011
Neighbor list builds = 10
Dangerous builds = 0
Hybrid pair style last /omp style lj/gromacs/coul/gromacs
Last active /omp style is improper_style harmonic/omp
Setting up cg style minimization ...
  Unit style    : real
  Current step  : 9470
WARNING: Energy due to 1 extra global DOFs will be included in minimizer energies
Per MPI rank memory allocation (min/avg/max) = 56.09 | 56.09 | 56.09 Mbytes
Step Temp PotEng TotEng Press Volume Density 
    9470    236.75812   -28715.629   -23397.946     142.4702    268421.64    1.2029523 
    9491    236.75812   -28720.543    -23402.86    794.96233    267589.46    1.2066934 
Loop time of 0.632941 on 8 procs for 21 steps with 7536 atoms

797.3% CPU use with 1 MPI tasks x 8 OpenMP threads

Minimization stats:
  Stopping criterion = linesearch alpha is zero
  Energy initial, next-to-last, final = 
     -28715.6286801943  -28720.5427733482  -28720.5427733482
  Force two-norm initial, final = 8962.2031 1331.4410
  Force max component initial, final = 8962.2012 1329.6775
  Final line search alpha, max atom move = 4.4826392e-15 5.9604645e-12
  Iterations, force evaluations = 21 177

MPI task timing breakdown:
Section |  min time  |  avg time  |  max time  |%varavg| %total
---------------------------------------------------------------
Pair    | 0.55129    | 0.55129    | 0.55129    |   0.0 | 87.10
Bond    | 0.023744   | 0.023744   | 0.023744   |   0.0 |  3.75
Neigh   | 0          | 0          | 0          |   0.0 |  0.00
Comm    | 0.011287   | 0.011287   | 0.011287   |   0.0 |  1.78
Output  | 0          | 0          | 0          |   0.0 |  0.00
Modify  | 0.025737   | 0.025737   | 0.025737   |   0.0 |  4.07
Other   |            | 0.02089    |            |       |  3.30

Nlocal:        7536.00 ave        7536 max        7536 min
Histogram: 1 0 0 0 0 0 0 0 0 0
Nghost:        14956.0 ave       14956 max       14956 min
Histogram: 1 0 0 0 0 0 0 0 0 0
Neighs:    1.22288e+06 ave 1.22288e+06 max 1.22288e+06 min
Histogram: 1 0 0 0 0 0 0 0 0 0

Total # of neighbors = 1222879
Ave neighs/atom = 162.27163
Ave special neighs/atom = 2.0345011
Neighbor list builds = 0
Dangerous builds = 0
Hybrid pair style last /omp style lj/gromacs/coul/gromacs
Last active /omp style is improper_style harmonic/omp
Setting up cg style minimization ...
  Unit style    : real
  Current step  : 9491
Per MPI rank memory allocation (min/avg/max) = 56.09 | 56.09 | 56.09 Mbytes
Step Temp PotEng TotEng Press Volume Density 
    9491    236.75812   -28720.543    -23402.86    794.96233    267589.46    1.2066934 
    9992    236.75812   -28730.712   -23413.029    203.02878    267589.46    1.2066934 
Loop time of 3.4664 on 8 procs for 501 steps with 7536 atoms

798.7% CPU use with 1 MPI tasks x 8 OpenMP threads

Minimization stats:
  Stopping criterion = max force evaluations
  Energy initial, next-to-last, final = 
     -28720.5427733482  -28730.6805212911  -28730.7124742656
  Force two-norm initial, final = 68.504452 4.6268290
  Force max component initial, final = 1.3339980 1.0222983
  Final line search alpha, max atom move = 0.0078784710 0.0080541472
  Iterations, force evaluations = 501 1001

MPI task timing breakdown:
Section |  min time  |  avg time  |  max time  |%varavg| %total
---------------------------------------------------------------
Pair    | 2.9079     | 2.9079     | 2.9079     |   0.0 | 83.89
Bond    | 0.19459    | 0.19459    | 0.19459    |   0.0 |  5.61
Neigh   | 0.017599   | 0.017599   | 0.017599   |   0.0 |  0.51
Comm    | 0.11725    | 0.11725    | 0.11725    |   0.0 |  3.38
Output  | 0          | 0          | 0          |   0.0 |  0.00
Modify  | 0.14187    | 0.14187    | 0.14187    |   0.0 |  4.09
Other   |            | 0.08721    |            |       |  2.52

Nlocal:        7536.00 ave        7536 max        7536 min
Histogram: 1 0 0 0 0 0 0 0 0 0
Nghost:        14963.0 ave       14963 max       14963 min
Histogram: 1 0 0 0 0 0 0 0 0 0
Neighs:    1.22664e+06 ave 1.22664e+06 max 1.22664e+06 min
Histogram: 1 0 0 0 0 0 0 0 0 0

Total # of neighbors = 1226644
Ave neighs/atom = 162.77123
Ave special neighs/atom = 2.0345011
Neighbor list builds = 5
Dangerous builds = 0
Hybrid pair style last /omp style lj/gromacs/coul/gromacs
Last active /omp style is improper_style harmonic/omp
Setting up cg style minimization ...
  Unit style    : real
  Current step  : 9992
WARNING: Energy due to 1 extra global DOFs will be included in minimizer energies
Per MPI rank memory allocation (min/avg/max) = 56.09 | 56.09 | 56.09 Mbytes
Step Temp PotEng TotEng Press Volume Density 
    9992    236.75812   -28732.047   -23414.364    203.02878    267589.46    1.2066934 
   10000    236.75812   -28736.044   -23418.361    709.75522    266947.76    1.2095941 
   10007    236.75812   -28736.213    -23418.53    806.44573    266825.99    1.2101461 
Loop time of 0.335471 on 8 procs for 15 steps with 7536 atoms

797.9% CPU use with 1 MPI tasks x 8 OpenMP threads

Minimization stats:
  Stopping criterion = linesearch alpha is zero
  Energy initial, next-to-last, final = 
     -28732.0466995163  -28736.2126576713  -28736.2126576713
  Force two-norm initial, final = 8258.3985 1223.5894
  Force max component initial, final = 8258.3956 1221.9606
  Final line search alpha, max atom move = 4.8777878e-15 5.9604645e-12
  Iterations, force evaluations = 15 93

MPI task timing breakdown:
Section |  min time  |  avg time  |  max time  |%varavg| %total
---------------------------------------------------------------
Pair    | 0.29174    | 0.29174    | 0.29174    |   0.0 | 86.96
Bond    | 0.012824   | 0.012824   | 0.012824   |   0.0 |  3.82
Neigh   | 0          | 0          | 0          |   0.0 |  0.00
Comm    | 0.0059483  | 0.0059483  | 0.0059483  |   0.0 |  1.77
Output  | 4.746e-05  | 4.746e-05  | 4.746e-05  |   0.0 |  0.01
Modify  | 0.013617   | 0.013617   | 0.013617   |   0.0 |  4.06
Other   |            | 0.01129    |            |       |  3.37

Nlocal:        7536.00 ave        7536 max        7536 min
Histogram: 1 0 0 0 0 0 0 0 0 0
Nghost:        14972.0 ave       14972 max       14972 min
Histogram: 1 0 0 0 0 0 0 0 0 0
Neighs:    1.22661e+06 ave 1.22661e+06 max 1.22661e+06 min
Histogram: 1 0 0 0 0 0 0 0 0 0

Total # of neighbors = 1226611
Ave neighs/atom = 162.76685
Ave special neighs/atom = 2.0345011
Neighbor list builds = 0
Dangerous builds = 0
Hybrid pair style last /omp style lj/gromacs/coul/gromacs
Last active /omp style is improper_style harmonic/omp
Setting up cg style minimization ...
  Unit style    : real
  Current step  : 10007
Per MPI rank memory allocation (min/avg/max) = 56.09 | 56.09 | 56.09 Mbytes
Step Temp PotEng TotEng Press Volume Density 
   10007    236.75812   -28736.213    -23418.53    806.44573    266825.99    1.2101461 
   10507    236.75812   -28745.004   -23427.321    238.33283    266825.99    1.2101461 
Loop time of 3.47752 on 8 procs for 500 steps with 7536 atoms

798.8% CPU use with 1 MPI tasks x 8 OpenMP threads

Minimization stats:
  Stopping criterion = max force evaluations
  Energy initial, next-to-last, final = 
     -28736.2126576713  -28744.9902522744   -28745.003646971
  Force two-norm initial, final = 63.112702 3.1853978
  Force max component initial, final = 1.3232122 0.66692009
  Final line search alpha, max atom move = 0.015888704 0.010596496
  Iterations, force evaluations = 500 1000

MPI task timing breakdown:
Section |  min time  |  avg time  |  max time  |%varavg| %total
---------------------------------------------------------------
Pair    | 2.9131     | 2.9131     | 2.9131     |   0.0 | 83.77
Bond    | 0.19657    | 0.19657    | 0.19657    |   0.0 |  5.65
Neigh   | 0.017628   | 0.017628   | 0.017628   |   0.0 |  0.51
Comm    | 0.11759    | 0.11759    | 0.11759    |   0.0 |  3.38
Output  | 0          | 0          | 0          |   0.0 |  0.00
Modify  | 0.14528    | 0.14528    | 0.14528    |   0.0 |  4.18
Other   |            | 0.08737    |            |       |  2.51

Nlocal:        7536.00 ave        7536 max        7536 min
Histogram: 1 0 0 0 0 0 0 0 0 0
Nghost:        15011.0 ave       15011 max       15011 min
Histogram: 1 0 0 0 0 0 0 0 0 0
Neighs:    1.22976e+06 ave 1.22976e+06 max 1.22976e+06 min
Histogram: 1 0 0 0 0 0 0 0 0 0

Total # of neighbors = 1229758
Ave neighs/atom = 163.18445
Ave special neighs/atom = 2.0345011
Neighbor list builds = 5
Dangerous builds = 0
Hybrid pair style last /omp style lj/gromacs/coul/gromacs
Last active /omp style is improper_style harmonic/omp
Setting up cg style minimization ...
  Unit style    : real
  Current step  : 0
Per MPI rank memory allocation (min/avg/max) = 56.09 | 56.09 | 56.09 Mbytes
Step Temp PotEng TotEng Press Volume Density 
       0    236.75812   -28746.491   -23428.808    238.33283    266825.99    1.2101461 
    1000    236.75812   -28775.808   -23458.125    151.96635    266825.99    1.2101461 
    2000    236.75812   -28788.086   -23470.403    115.00599    266825.99    1.2101461 
    3000    236.75812   -28790.071   -23472.388    91.949639    266825.99    1.2101461 
    4000    236.75812   -28790.145   -23472.462    91.740808    266825.99    1.2101461 
    5000    236.75812   -28790.175   -23472.492    91.947707    266825.99    1.2101461 
    5351    236.75812   -28790.175   -23472.492      91.9461    266825.99    1.2101461 
Loop time of 37.1701 on 8 procs for 5351 steps with 7536 atoms

798.7% CPU use with 1 MPI tasks x 8 OpenMP threads

Minimization stats:
  Stopping criterion = energy tolerance
  Energy initial, next-to-last, final = 
     -28746.4914086282  -28790.1748488886  -28790.1748488886
  Force two-norm initial, final = 6.3342661 0.00034991541
  Force max component initial, final = 1.0859559 4.4876193e-05
  Final line search alpha, max atom move = 1.0000000 4.4876193e-05
  Iterations, force evaluations = 5351 10702

MPI task timing breakdown:
Section |  min time  |  avg time  |  max time  |%varavg| %total
---------------------------------------------------------------
Pair    | 31.2       | 31.2       | 31.2       |   0.0 | 83.94
Bond    | 2.1058     | 2.1058     | 2.1058     |   0.0 |  5.67
Neigh   | 0.12422    | 0.12422    | 0.12422    |   0.0 |  0.33
Comm    | 1.267      | 1.267      | 1.267      |   0.0 |  3.41
Output  | 0.00027278 | 0.00027278 | 0.00027278 |   0.0 |  0.00
Modify  | 1.5371     | 1.5371     | 1.5371     |   0.0 |  4.14
Other   |            | 0.9354     |            |       |  2.52

Nlocal:        7536.00 ave        7536 max        7536 min
Histogram: 1 0 0 0 0 0 0 0 0 0
Nghost:        14994.0 ave       14994 max       14994 min
Histogram: 1 0 0 0 0 0 0 0 0 0
Neighs:    1.23000e+06 ave    1.23e+06 max    1.23e+06 min
Histogram: 1 0 0 0 0 0 0 0 0 0

Total # of neighbors = 1230003
Ave neighs/atom = 163.21696
Ave special neighs/atom = 2.0345011
Neighbor list builds = 35
Dangerous builds = 0
Hybrid pair style last /omp style lj/gromacs/coul/gromacs
Last active /omp style is improper_style harmonic/omp
Setting up cg style minimization ...
  Unit style    : real
  Current step  : 5351
Per MPI rank memory allocation (min/avg/max) = 56.09 | 56.09 | 56.09 Mbytes
Step Temp PotEng TotEng Press Volume Density 
    5351    236.75812   -28790.175   -23472.492      91.9461    266825.99    1.2101461 
    5353    236.75812   -28790.175   -23472.492    91.946085    266825.99    1.2101461 
Loop time of 0.0183365 on 8 procs for 2 steps with 7536 atoms

786.0% CPU use with 1 MPI tasks x 8 OpenMP threads

Minimization stats:
  Stopping criterion = energy tolerance
  Energy initial, next-to-last, final = 
     -28790.1748488886  -28790.1748488887  -28790.1748488887
  Force two-norm initial, final = 0.00034991541 9.5764099e-05
  Force max component initial, final = 4.4876193e-05 1.5869272e-05
  Final line search alpha, max atom move = 1.0000000 1.5869272e-05
  Iterations, force evaluations = 2 4

MPI task timing breakdown:
Section |  min time  |  avg time  |  max time  |%varavg| %total
---------------------------------------------------------------
Pair    | 0.015147   | 0.015147   | 0.015147   |   0.0 | 82.61
Bond    | 0.0014823  | 0.0014823  | 0.0014823  |   0.0 |  8.08
Neigh   | 0          | 0          | 0          |   0.0 |  0.00
Comm    | 0.00058544 | 0.00058544 | 0.00058544 |   0.0 |  3.19
Output  | 0          | 0          | 0          |   0.0 |  0.00
Modify  | 0.00071809 | 0.00071809 | 0.00071809 |   0.0 |  3.92
Other   |            | 0.0004032  |            |       |  2.20

Nlocal:        7536.00 ave        7536 max        7536 min
Histogram: 1 0 0 0 0 0 0 0 0 0
Nghost:        14995.0 ave       14995 max       14995 min
Histogram: 1 0 0 0 0 0 0 0 0 0
Neighs:    1.23006e+06 ave 1.23006e+06 max 1.23006e+06 min
Histogram: 1 0 0 0 0 0 0 0 0 0

Total # of neighbors = 1230058
Ave neighs/atom = 163.22426
Ave special neighs/atom = 2.0345011
Neighbor list builds = 0
Dangerous builds = 0
*******box/relax DONE ****
Hybrid pair style last /omp style lj/gromacs/coul/gromacs
Last active /omp style is improper_style harmonic/omp
Setting up r-RESPA/omp run ...
  Unit style    : real
  Current step  : 5353
  Time steps    : 1:1.25 2:2.5 3:5 4:10
  r-RESPA fixes :
Per MPI rank memory allocation (min/avg/max) = 56.84 | 56.84 | 56.84 Mbytes
Step Temp PotEng TotEng Press Volume Density 
WARNING: Too many warnings: 256 vs 100. All future warnings will be suppressed (../thermo.cpp:422)
    5353          300   -28792.378   -22054.257    335.29367    266825.99    1.2101461 
Loop time of 5.30001e-07 on 8 procs for 0 steps with 7536 atoms

188.7% CPU use with 1 MPI tasks x 8 OpenMP threads

MPI task timing breakdown:
Section |  min time  |  avg time  |  max time  |%varavg| %total
---------------------------------------------------------------
Pair    | 0          | 0          | 0          |   0.0 |  0.00
Bond    | 0          | 0          | 0          |   0.0 |  0.00
Neigh   | 0          | 0          | 0          |   0.0 |  0.00
Comm    | 0          | 0          | 0          |   0.0 |  0.00
Output  | 0          | 0          | 0          |   0.0 |  0.00
Modify  | 0          | 0          | 0          |   0.0 |  0.00
Other   |            | 5.3e-07    |            |       |100.00

Nlocal:        7536.00 ave        7536 max        7536 min
Histogram: 1 0 0 0 0 0 0 0 0 0
Nghost:        14995.0 ave       14995 max       14995 min
Histogram: 1 0 0 0 0 0 0 0 0 0
Neighs:    1.23006e+06 ave 1.23006e+06 max 1.23006e+06 min
Histogram: 1 0 0 0 0 0 0 0 0 0

Total # of neighbors = 1230058
Ave neighs/atom = 163.22426
Ave special neighs/atom = 2.0345011
Neighbor list builds = 0
Dangerous builds = 0
System init for write_data ...
Hybrid pair style last /omp style lj/gromacs/coul/gromacs
Last active /omp style is improper_style harmonic/omp
Finding SHAKE clusters ...
       0 = # of size 2 clusters
    2400 = # of size 3 clusters
       0 = # of size 4 clusters
       0 = # of frozen angles
  find clusters CPU = 0.001 seconds
Hybrid pair style last /omp style lj/gromacs/coul/gromacs
Last active /omp style is improper_style harmonic/omp
Setting up r-RESPA/omp run ...
  Unit style    : real
  Current step  : 0
  Time steps    : 1:1.25 2:2.5 3:5 4:10
  r-RESPA fixes :
Per MPI rank memory allocation (min/avg/max) = 58.59 | 58.59 | 58.59 Mbytes
Step Temp PotEng TotEng Press Volume Density 
       0    380.87616   -29162.201    -22424.08    101.53061    266825.99    1.2101461 
    1000    298.65245   -19662.963    -14379.47   -10.240835    297083.01    1.0868963 
    2000    304.24902   -19656.181   -14273.679    21.018746    297721.18    1.0845666 
    3000    294.36947   -19762.774   -14555.052    80.803492    296508.14    1.0890036 
    4000    299.49119    -19584.66   -14286.329    165.53022    295974.02    1.0909688 
